
                                 *****************
                                 * O   R   C   A *
                                 *****************

                                            #,                                       
                                            ###                                      
                                            ####                                     
                                            #####                                    
                                            ######                                   
                                           ########,                                 
                                     ,,################,,,,,                         
                               ,,#################################,,                 
                          ,,##########################################,,             
                       ,#########################################, ''#####,          
                    ,#############################################,,   '####,        
                  ,##################################################,,,,####,       
                ,###########''''           ''''###############################       
              ,#####''   ,,,,##########,,,,          '''####'''          '####       
            ,##' ,,,,###########################,,,                        '##       
           ' ,,###''''                  '''############,,,                           
         ,,##''                                '''############,,,,        ,,,,,,###''
      ,#''                                            '''#######################'''  
     '                                                          ''''####''''         
             ,#######,   #######,   ,#######,      ##                                
            ,#'     '#,  ##    ##  ,#'     '#,    #''#        ######   ,####,        
            ##       ##  ##   ,#'  ##            #'  '#       #        #'  '#        
            ##       ##  #######   ##           ,######,      #####,   #    #        
            '#,     ,#'  ##    ##  '#,     ,#' ,#      #,         ##   #,  ,#        
             '#######'   ##     ##  '#######'  #'      '#     #####' # '####'        



                  #######################################################
                  #                        -***-                        #
                  #          Department of theory and spectroscopy      #
                  #    Directorship and core code : Frank Neese         #
                  #        Max Planck Institute fuer Kohlenforschung    #
                  #                Kaiser Wilhelm Platz 1               #
                  #                 D-45470 Muelheim/Ruhr               #
                  #                      Germany                        #
                  #                                                     #
                  #                  All rights reserved                #
                  #                        -***-                        #
                  #######################################################


                         Program Version 5.0.3 -  RELEASE  -


 With contributions from (in alphabetic order):
   Daniel Aravena         : Magnetic Suceptibility
   Michael Atanasov       : Ab Initio Ligand Field Theory (pilot matlab implementation)
   Alexander A. Auer      : GIAO ZORA, VPT2 properties, NMR spectrum
   Ute Becker             : Parallelization
   Giovanni Bistoni       : ED, misc. LED, open-shell LED, HFLD
   Martin Brehm           : Molecular dynamics
   Dmytro Bykov           : SCF Hessian
   Vijay G. Chilkuri      : MRCI spin determinant printing, contributions to CSF-ICE
   Dipayan Datta          : RHF DLPNO-CCSD density
   Achintya Kumar Dutta   : EOM-CC, STEOM-CC
   Dmitry Ganyushin       : Spin-Orbit,Spin-Spin,Magnetic field MRCI
   Miquel Garcia          : C-PCM and meta-GGA Hessian, CC/C-PCM, Gaussian charge scheme
   Yang Guo               : DLPNO-NEVPT2, F12-NEVPT2, CIM, IAO-localization
   Andreas Hansen         : Spin unrestricted coupled pair/coupled cluster methods
   Benjamin Helmich-Paris : MC-RPA, TRAH-SCF, COSX integrals
   Lee Huntington         : MR-EOM, pCC
   Robert Izsak           : Overlap fitted RIJCOSX, COSX-SCS-MP3, EOM
   Marcus Kettner         : VPT2
   Christian Kollmar      : KDIIS, OOCD, Brueckner-CCSD(T), CCSD density, CASPT2, CASPT2-K
   Simone Kossmann        : Meta GGA functionals, TD-DFT gradient, OOMP2, MP2 Hessian
   Martin Krupicka        : Initial AUTO-CI
   Lucas Lang             : DCDCAS
   Marvin Lechner         : AUTO-CI (C++ implementation), FIC-MRCC
   Dagmar Lenk            : GEPOL surface, SMD
   Dimitrios Liakos       : Extrapolation schemes; Compound Job, initial MDCI parallelization
   Dimitrios Manganas     : Further ROCIS development; embedding schemes
   Dimitrios Pantazis     : SARC Basis sets
   Anastasios Papadopoulos: AUTO-CI, single reference methods and gradients
   Taras Petrenko         : DFT Hessian,TD-DFT gradient, ASA, ECA, R-Raman, ABS, FL, XAS/XES, NRVS
   Peter Pinski           : DLPNO-MP2, DLPNO-MP2 Gradient
   Christoph Reimann      : Effective Core Potentials
   Marius Retegan         : Local ZFS, SOC
   Christoph Riplinger    : Optimizer, TS searches, QM/MM, DLPNO-CCSD(T), (RO)-DLPNO pert. Triples
   Tobias Risthaus        : Range-separated hybrids, TD-DFT gradient, RPA, STAB
   Michael Roemelt        : Original ROCIS implementation
   Masaaki Saitow         : Open-shell DLPNO-CCSD energy and density
   Barbara Sandhoefer     : DKH picture change effects
   Avijit Sen             : IP-ROCIS
   Kantharuban Sivalingam : CASSCF convergence, NEVPT2, FIC-MRCI
   Bernardo de Souza      : ESD, SOC TD-DFT
   Georgi Stoychev        : AutoAux, RI-MP2 NMR, DLPNO-MP2 response
   Willem Van den Heuvel  : Paramagnetic NMR
   Boris Wezisla          : Elementary symmetry handling
   Frank Wennmohs         : Technical directorship


 We gratefully acknowledge several colleagues who have allowed us to
 interface, adapt or use parts of their codes:
   Stefan Grimme, W. Hujo, H. Kruse, P. Pracht,  : VdW corrections, initial TS optimization,
                  C. Bannwarth, S. Ehlert          DFT functionals, gCP, sTDA/sTD-DF
   Ed Valeev, F. Pavosevic, A. Kumar             : LibInt (2-el integral package), F12 methods
   Garnet Chan, S. Sharma, J. Yang, R. Olivares  : DMRG
   Ulf Ekstrom                                   : XCFun DFT Library
   Mihaly Kallay                                 : mrcc  (arbitrary order and MRCC methods)
   Jiri Pittner, Ondrej Demel                    : Mk-CCSD
   Frank Weinhold                                : gennbo (NPA and NBO analysis)
   Christopher J. Cramer and Donald G. Truhlar   : smd solvation model
   Lars Goerigk                                  : TD-DFT with DH, B97 family of functionals
   V. Asgeirsson, H. Jonsson                     : NEB implementation
   FAccTs GmbH                                   : IRC, NEB, NEB-TS, DLPNO-Multilevel, CI-OPT
                                                   MM, QMMM, 2- and 3-layer-ONIOM, Crystal-QMMM,
                                                   LR-CPCM, SF, NACMEs, symmetry and pop. for TD-DFT,
                                                   nearIR, NL-DFT gradient (VV10), updates on ESD,
                                                   ML-optimized integration grids
   S Lehtola, MJT Oliveira, MAL Marques          : LibXC Library
   Liviu Ungur et al                             : ANISO software


 Your calculation uses the libint2 library for the computation of 2-el integrals
 For citations please refer to: http://libint.valeyev.net

 Your ORCA version has been built with support for libXC version: 5.1.0
 For citations please refer to: https://tddft.org/programs/libxc/

 This ORCA versions uses:
   CBLAS   interface :  Fast vector & matrix operations
   LAPACKE interface :  Fast linear algebra routines
   SCALAPACK package :  Parallel linear algebra routines
   Shared memory     :  Shared parallel matrices
   BLAS/LAPACK       :  OpenBLAS 0.3.15  USE64BITINT DYNAMIC_ARCH NO_AFFINITY Haswell SINGLE_THREADED
        Core in use  :  Haswell
   Copyright (c) 2011-2014, The OpenBLAS Project


================================================================================

----- Orbital basis set information -----
Your calculation utilizes the basis: 6-31G*
   H-He, Li-Ne : W. J. Hehre, R. Ditchfield and J.A. Pople, J. Chem. Phys. 56, 2257 (1972).
                 Note: He and Ne are unpublished basis sets taken from the Gaussian program.
                 Note: Li and B from J. D. Dill and J. A. Pople, J. Chem. Phys. 62, 2921 (1975).
   Na - Ar     : M. M. Francl, W. J. Pietro, W. J. Hehre, J. S. Binkley, M. S. Gordon, 
                 D. J. DeFrees and J. A. Pople, J. Chem. Phys. 77, 3654 (1982).
   K - Zn      : V. A. Rassolov, J. A. Pople, M. A. Ratner, and T. L. Windus, J. Chem. Phys. 109, 1223 (1998).

----- AuxJ basis set information -----
Your calculation utilizes the auxiliary basis: def2/J
   F. Weigend, Phys. Chem. Chem. Phys. 8, 1057 (2006).

================================================================================
                                        WARNINGS
                       Please study these warnings very carefully!
================================================================================


WARNING: Geometry Optimization
  ===> : Switching off AutoStart
         For restart on a previous wavefunction, please use MOREAD

INFO   : the flag for use of the SHARK integral package has been found!

================================================================================
                                       INPUT FILE
================================================================================
NAME = benzyne_b3lyp
|  1>  ! B3LYP 6-31g* OPT ANFREQ NoFrozenCore
|  2> 
|  3> *xyz 0 1
|  4>  
|  5>  C     0.000000     0.000000     0.000000
|  6>  C     0.000000     0.000000     1.200000
|  7>  C     1.212436     0.000000     1.900000
|  8>  C     2.424871     0.000000     1.200000
|  9>  C     2.424871     0.000000    -0.200000
| 10>  C     1.212436     0.000000    -0.900000
| 11>  H     1.212436     0.000000     2.989000
| 12>  H     3.367973     0.000000     1.744500
| 13>  H     3.367973     0.000000    -0.744500
| 14>  H     1.212436     0.000000    -1.989000
| 15> **                         ****END OF INPUT****
================================================================================

                       *****************************
                       * Geometry Optimization Run *
                       *****************************

Geometry optimization settings:
Update method            Update   .... BFGS
Choice of coordinates    CoordSys .... Z-matrix Internals
Initial Hessian          InHess   .... Almoef's Model

Convergence Tolerances:
Energy Change            TolE     ....  5.0000e-06 Eh
Max. Gradient            TolMAXG  ....  3.0000e-04 Eh/bohr
RMS Gradient             TolRMSG  ....  1.0000e-04 Eh/bohr
Max. Displacement        TolMAXD  ....  4.0000e-03 bohr
RMS Displacement         TolRMSD  ....  2.0000e-03 bohr
Strict Convergence                ....  False
------------------------------------------------------------------------------
                        ORCA OPTIMIZATION COORDINATE SETUP
------------------------------------------------------------------------------

The optimization will be done in new redundant internal coordinates
Making redundant internal coordinates   ...  (new redundants) done
Evaluating the initial hessian          ...  (Almloef) done
Evaluating the coordinates              ...  done
Calculating the B-matrix                .... done
Calculating the G-matrix                .... done
Diagonalizing the G-matrix              .... done
The first mode is                       ....   17
The number of degrees of freedom        ....   24

    -----------------------------------------------------------------
                    Redundant Internal Coordinates


    -----------------------------------------------------------------
         Definition                    Initial Value    Approx d2E/dq
    -----------------------------------------------------------------
      1. B(C   1,C   0)                  1.2000         1.255658   
      2. B(C   2,C   1)                  1.4000         0.602259   
      3. B(C   3,C   2)                  1.4000         0.602261   
      4. B(C   4,C   3)                  1.4000         0.602260   
      5. B(C   5,C   4)                  1.4000         0.602261   
      6. B(C   5,C   0)                  1.5100         0.402104   
      7. B(H   6,C   2)                  1.0890         0.361425   
      8. B(H   7,C   3)                  1.0890         0.361425   
      9. B(H   8,C   4)                  1.0890         0.361425   
     10. B(H   9,C   5)                  1.0890         0.361425   
     11. A(C   1,C   0,C   5)          126.5868         0.456034   
     12. A(C   0,C   1,C   2)          120.0000         0.491176   
     13. A(C   1,C   2,H   6)          120.0000         0.351399   
     14. A(C   1,C   2,C   3)          120.0000         0.429561   
     15. A(C   3,C   2,H   6)          120.0000         0.351399   
     16. A(C   2,C   3,C   4)          120.0000         0.429561   
     17. A(C   4,C   3,H   7)          120.0000         0.351399   
     18. A(C   2,C   3,H   7)          120.0000         0.351399   
     19. A(C   5,C   4,H   8)          120.0000         0.351399   
     20. A(C   3,C   4,H   8)          120.0000         0.351399   
     21. A(C   3,C   4,C   5)          120.0000         0.429561   
     22. A(C   4,C   5,H   9)          120.0000         0.351399   
     23. A(C   0,C   5,H   9)          126.5868         0.328470   
     24. A(C   0,C   5,C   4)          113.4132         0.399803   
     25. D(C   2,C   1,C   0,C   5)      0.0000         0.103022   
     26. D(H   6,C   2,C   1,C   0)    180.0000         0.022694   
     27. D(C   3,C   2,C   1,C   0)      0.0000         0.022694   
     28. D(H   7,C   3,C   2,C   1)    180.0000         0.025015   
     29. D(C   4,C   3,C   2,H   6)    180.0000         0.025015   
     30. D(H   7,C   3,C   2,H   6)      0.0000         0.025015   
     31. D(C   4,C   3,C   2,C   1)      0.0000         0.025015   
     32. D(H   8,C   4,C   3,C   2)    180.0000         0.025015   
     33. D(C   5,C   4,C   3,H   7)    180.0000         0.025015   
     34. D(H   8,C   4,C   3,H   7)      0.0000         0.025015   
     35. D(C   5,C   4,C   3,C   2)      0.0000         0.025015   
     36. D(C   0,C   5,C   4,C   3)      0.0000         0.025015   
     37. D(H   9,C   5,C   0,C   1)    180.0000         0.010163   
     38. D(C   0,C   5,C   4,H   8)    180.0000         0.025015   
     39. D(C   4,C   5,C   0,C   1)      0.0000         0.010163   
     40. D(H   9,C   5,C   4,H   8)      0.0000         0.025015   
     41. D(H   9,C   5,C   4,C   3)    180.0000         0.025015   
    -----------------------------------------------------------------

Number of atoms                         .... 10
Number of degrees of freedom            .... 41

         *************************************************************
         *                GEOMETRY OPTIMIZATION CYCLE   1            *
         *************************************************************
---------------------------------
CARTESIAN COORDINATES (ANGSTROEM)
---------------------------------
  C      0.000000    0.000000    0.000000
  C      0.000000    0.000000    1.200000
  C      1.212436    0.000000    1.900000
  C      2.424871    0.000000    1.200000
  C      2.424871    0.000000   -0.200000
  C      1.212436    0.000000   -0.900000
  H      1.212436    0.000000    2.989000
  H      3.367973    0.000000    1.744500
  H      3.367973    0.000000   -0.744500
  H      1.212436    0.000000   -1.989000

----------------------------
CARTESIAN COORDINATES (A.U.)
----------------------------
  NO LB      ZA    FRAG     MASS         X           Y           Z
   0 C     6.0000    0    12.011    0.000000    0.000000    0.000000
   1 C     6.0000    0    12.011    0.000000    0.000000    2.267671
   2 C     6.0000    0    12.011    2.291172    0.000000    3.590480
   3 C     6.0000    0    12.011    4.582342    0.000000    2.267671
   4 C     6.0000    0    12.011    4.582342    0.000000   -0.377945
   5 C     6.0000    0    12.011    2.291172    0.000000   -1.700754
   6 H     1.0000    0     1.008    2.291172    0.000000    5.648391
   7 H     1.0000    0     1.008    6.364547    0.000000    3.296627
   8 H     1.0000    0     1.008    6.364547    0.000000   -1.406901
   9 H     1.0000    0     1.008    2.291172    0.000000   -3.758665

--------------------------------
INTERNAL COORDINATES (ANGSTROEM)
--------------------------------
 C      0   0   0     0.000000000000     0.00000000     0.00000000
 C      1   0   0     1.200000000000     0.00000000     0.00000000
 C      2   1   0     1.400000376463   119.99999110     0.00000000
 C      3   2   1     1.399999510437   119.99999733     0.00000000
 C      4   3   2     1.400000000000   120.00001157     0.00000000
 C      5   4   3     1.399999510437   120.00001157     0.00000000
 H      3   2   1     1.089000000000   119.99999110   180.00000000
 H      4   3   2     1.089000290360   119.99999725   180.00000000
 H      5   4   3     1.089000290360   119.99999118   180.00000085
 H      6   5   4     1.089000000000   120.00001157   180.00000000

---------------------------
INTERNAL COORDINATES (A.U.)
---------------------------
 C      0   0   0     0.000000000000     0.00000000     0.00000000
 C      1   0   0     2.267671360706     0.00000000     0.00000000
 C      2   1   0     2.645617298901   119.99999110     0.00000000
 C      3   2   1     2.645615662351   119.99999733     0.00000000
 C      4   3   2     2.645616587490   120.00001157     0.00000000
 C      5   4   3     2.645615662351   120.00001157     0.00000000
 H      3   2   1     2.057911759840   119.99999110   180.00000000
 H      4   3   2     2.057912308541   119.99999725   180.00000000
 H      5   4   3     2.057912308541   119.99999118   180.00000085
 H      6   5   4     2.057911759840   120.00001157   180.00000000

---------------------
BASIS SET INFORMATION
---------------------
There are 2 groups of distinct atoms

 Group   1 Type C   : 10s4p1d contracted to 3s2p1d pattern {631/31/1}
 Group   2 Type H   : 4s contracted to 2s pattern {31}

Atom   0C    basis set group =>   1
Atom   1C    basis set group =>   1
Atom   2C    basis set group =>   1
Atom   3C    basis set group =>   1
Atom   4C    basis set group =>   1
Atom   5C    basis set group =>   1
Atom   6H    basis set group =>   2
Atom   7H    basis set group =>   2
Atom   8H    basis set group =>   2
Atom   9H    basis set group =>   2
---------------------------------
AUXILIARY/J BASIS SET INFORMATION
---------------------------------
There are 2 groups of distinct atoms

 Group   1 Type C   : 12s5p4d2f1g contracted to 6s4p3d1f1g pattern {711111/2111/211/2/1}
 Group   2 Type H   : 5s2p1d contracted to 3s1p1d pattern {311/2/1}

Atom   0C    basis set group =>   1
Atom   1C    basis set group =>   1
Atom   2C    basis set group =>   1
Atom   3C    basis set group =>   1
Atom   4C    basis set group =>   1
Atom   5C    basis set group =>   1
Atom   6H    basis set group =>   2
Atom   7H    basis set group =>   2
Atom   8H    basis set group =>   2
Atom   9H    basis set group =>   2
------------------------------------------------------------------------------
                           ORCA GTO INTEGRAL CALCULATION
                           -- RI-GTO INTEGRALS CHOSEN --
------------------------------------------------------------------------------
------------------------------------------------------------------------------
                   ___                                                        
                  /   \      - P O W E R E D   B Y -                         
                 /     \                                                     
                 |  |  |   _    _      __       _____    __    __             
                 |  |  |  | |  | |    /  \     |  _  \  |  |  /  |          
                  \  \/   | |  | |   /    \    | | | |  |  | /  /          
                 / \  \   | |__| |  /  /\  \   | |_| |  |  |/  /          
                |  |  |   |  __  | /  /__\  \  |    /   |      \           
                |  |  |   | |  | | |   __   |  |    \   |  |\   \          
                \     /   | |  | | |  |  |  |  | |\  \  |  | \   \       
                 \___/    |_|  |_| |__|  |__|  |_| \__\ |__|  \__/        
                                                                              
                      - O R C A' S   B I G   F R I E N D -                    
                                      &                                       
                       - I N T E G R A L  F E E D E R -                       
                                                                              
 v1 FN, 2020, v2 2021                                                         
------------------------------------------------------------------------------


Reading SHARK input file benzyne_b3lyp.SHARKINP.tmp ... ok
----------------------
SHARK INTEGRAL PACKAGE
----------------------

Number of atoms                             ...     10
Number of basis functions                   ...     92
Number of shells                            ...     44
Maximum angular momentum                    ...      2
Integral batch strategy                     ... SHARK/LIBINT Hybrid
RI-J (if used) integral strategy            ... SPLIT-RIJ (Revised 2003 algorithm where possible)
Printlevel                                  ...      1
Contraction scheme used                     ... SEGMENTED contraction
Coulomb Range Separation                    ... NOT USED
Exchange Range Separation                   ... NOT USED
Finite Nucleus Model                        ... NOT USED
Auxiliary Coulomb fitting basis             ... AVAILABLE
   # of basis functions in Aux-J            ...    338
   # of shells in Aux-J                     ...    110
   Maximum angular momentum in Aux-J        ...      4
Auxiliary J/K fitting basis                 ... NOT available
Auxiliary Correlation fitting basis         ... NOT available
Auxiliary 'external' fitting basis          ... NOT available
Integral threshold                          ...     2.500000e-11
Primitive cut-off                           ...     2.500000e-12
Primitive pair pre-selection threshold      ...     2.500000e-12

Calculating pre-screening integrals         ... done (  0.1 sec) Dimension = 44
Organizing shell pair data                  ... done (  0.0 sec)
Shell pair information
Total number of shell pairs                 ...       990
Shell pairs after pre-screening             ...       976
Total number of primitive shell pairs       ...      5809
Primitive shell pairs kept                  ...      4224
          la=0 lb=0:    337 shell pairs
          la=1 lb=0:    312 shell pairs
          la=1 lb=1:     78 shell pairs
          la=2 lb=0:    156 shell pairs
          la=2 lb=1:     72 shell pairs
          la=2 lb=2:     21 shell pairs

Calculating one electron integrals          ... done (  0.0 sec)
Calculating RI/J V-Matrix + Cholesky decomp.... done (  0.0 sec)
Calculating Nuclear repulsion               ... done (  0.0 sec) ENN=    186.351047638348 Eh

SHARK setup successfully completed in   0.2 seconds

Maximum memory used throughout the entire GTOINT-calculation: 12.3 MB
-------------------------------------------------------------------------------
                                 ORCA SCF
-------------------------------------------------------------------------------

------------
SCF SETTINGS
------------
Hamiltonian:
 Density Functional     Method          .... DFT(GTOs)
 Exchange Functional    Exchange        .... B88
   X-Alpha parameter    XAlpha          ....  0.666667
   Becke's b parameter  XBeta           ....  0.004200
 Correlation Functional Correlation     .... LYP
 LDA part of GGA corr.  LDAOpt          .... VWN-5
 Gradients option       PostSCFGGA      .... off
 Hybrid DFT is turned on
   Fraction HF Exchange ScalHFX         ....  0.200000
   Scaling of DF-GGA-X  ScalDFX         ....  0.720000
   Scaling of DF-GGA-C  ScalDFC         ....  0.810000
   Scaling of DF-LDA-C  ScalLDAC        ....  1.000000
   Perturbative correction              ....  0.000000
   Density functional embedding theory  .... OFF
   NL short-range parameter             ....  4.800000
 RI-approximation to the Coulomb term is turned on
   Number of AuxJ basis functions       .... 338
   RIJ-COSX (HFX calculated with COS-X)).... on


General Settings:
 Integral files         IntName         .... benzyne_b3lyp
 Hartree-Fock type      HFTyp           .... RHF
 Total Charge           Charge          ....    0
 Multiplicity           Mult            ....    1
 Number of Electrons    NEL             ....   40
 Basis Dimension        Dim             ....   92
 Nuclear Repulsion      ENuc            ....    186.3510476383 Eh

Convergence Acceleration:
 DIIS                   CNVDIIS         .... on
   Start iteration      DIISMaxIt       ....    12
   Startup error        DIISStart       ....  0.200000
   # of expansion vecs  DIISMaxEq       ....     5
   Bias factor          DIISBfac        ....   1.050
   Max. coefficient     DIISMaxC        ....  10.000
 Trust-Rad. Augm. Hess. CNVTRAH         .... auto
   Auto Start mean grad. ratio tolernc. ....  1.125000
   Auto Start start iteration           ....    20
   Auto Start num. interpolation iter.  ....    10
   Max. Number of Micro iterations      ....    16
   Max. Number of Macro iterations      .... Maxiter - #DIIS iter
   Number of Davidson start vectors     ....     2
   Converg. threshold I  (grad. norm)   ....   1.000e-05
   Converg. threshold II (energy diff.) ....   1.000e-08
   Grad. Scal. Fac. for Micro threshold ....   0.100
   Minimum threshold for Micro iter.    ....   0.010
   NR start threshold (gradient norm)   ....   0.001
   Initial trust radius                 ....   0.400
   Minimum AH scaling param. (alpha)    ....   1.000
   Maximum AH scaling param. (alpha)    .... 1000.000
   Orbital update algorithm             .... Taylor
   White noise on init. David. guess    .... on
   Maximum white noise                  ....   0.010
   Quad. conv. algorithm                .... NR
 SOSCF                  CNVSOSCF        .... on
   Start iteration      SOSCFMaxIt      ....   150
   Startup grad/error   SOSCFStart      ....  0.003300
 Level Shifting         CNVShift        .... on
   Level shift para.    LevelShift      ....    0.2500
   Turn off err/grad.   ShiftErr        ....    0.0010
 Zerner damping         CNVZerner       .... off
 Static damping         CNVDamp         .... on
   Fraction old density DampFac         ....    0.7000
   Max. Damping (<1)    DampMax         ....    0.9800
   Min. Damping (>=0)   DampMin         ....    0.0000
   Turn off err/grad.   DampErr         ....    0.1000
 Fernandez-Rico         CNVRico         .... off

SCF Procedure:
 Maximum # iterations   MaxIter         ....   125
 SCF integral mode      SCFMode         .... Direct
   Integral package                     .... SHARK and LIBINT hybrid scheme
 Reset frequency        DirectResetFreq ....    20
 Integral Threshold     Thresh          ....  2.500e-11 Eh
 Primitive CutOff       TCut            ....  2.500e-12 Eh

Convergence Tolerance:
 Convergence Check Mode ConvCheckMode   .... Total+1el-Energy
 Convergence forced     ConvForced      .... 0
 Energy Change          TolE            ....  1.000e-08 Eh
 1-El. energy change                    ....  1.000e-05 Eh
 Orbital Gradient       TolG            ....  1.000e-05
 Orbital Rotation angle TolX            ....  1.000e-05
 DIIS Error             TolErr          ....  5.000e-07


Diagonalization of the overlap matrix:
Smallest eigenvalue                        ... 8.047e-04
Time for diagonalization                   ...    0.002 sec
Threshold for overlap eigenvalues          ... 1.000e-08
Number of eigenvalues below threshold      ... 0
Time for construction of square roots      ...    0.000 sec
Total time needed                          ...    0.003 sec

Time for model grid setup =    0.127 sec

------------------------------
INITIAL GUESS: MODEL POTENTIAL
------------------------------
Loading Hartree-Fock densities                     ... done
Calculating cut-offs                               ... done
Initializing the effective Hamiltonian             ... done
Setting up the integral package (SHARK)            ... done
Starting the Coulomb interaction                   ... done (   0.1 sec)
Reading the grid                                   ... done
Mapping shells                                     ... done
Starting the XC term evaluation                    ... done (   0.1 sec)
  promolecular density results
     # of electrons  =     39.998340186
     EX              =    -31.956374967
     EC              =     -1.321915574
     EX+EC           =    -33.278290541
Transforming the Hamiltonian                       ... done (   0.0 sec)
Diagonalizing the Hamiltonian                      ... done (   0.0 sec)
Back transforming the eigenvectors                 ... done (   0.0 sec)
Now organizing SCF variables                       ... done
                      ------------------
                      INITIAL GUESS DONE (   0.3 sec)
                      ------------------
-------------------
DFT GRID GENERATION
-------------------

General Integration Accuracy     IntAcc      ... 4.388
Radial Grid Type                 RadialGrid  ... OptM3 with GC (2021)
Angular Grid (max. ang.)         AngularGrid ... 4 (Lebedev-302)
Angular grid pruning method      GridPruning ... 4 (adaptive)
Weight generation scheme         WeightScheme... Becke
Basis function cutoff            BFCut       ... 1.0000e-11
Integration weight cutoff        WCut        ... 1.0000e-14
Angular grids for H and He will be reduced by one unit
Partially contracted basis set               ... off
Rotationally invariant grid construction     ... off

Total number of grid points                  ...    49184
Total number of batches                      ...      774
Average number of points per batch           ...       63
Average number of grid points per atom       ...     4918
Time for grid setup =    0.522 sec

--------------------
COSX GRID GENERATION
--------------------

GRIDX 1
-------
General Integration Accuracy     IntAcc      ... 3.816
Radial Grid Type                 RadialGrid  ... OptM3 with GC (2021)
Angular Grid (max. ang.)         AngularGrid ... 1 (Lebedev-50)
Angular grid pruning method      GridPruning ... 4 (adaptive)
Weight generation scheme         WeightScheme... Becke
Basis function cutoff            BFCut       ... 1.0000e-11
Integration weight cutoff        WCut        ... 1.0000e-14
Angular grids for H and He will be reduced by one unit
Partially contracted basis set               ... on
Rotationally invariant grid construction     ... off

Total number of grid points                  ...     6269
Total number of batches                      ...      101
Average number of points per batch           ...       62
Average number of grid points per atom       ...      627
UseSFitting                                  ... on

GRIDX 2
-------
General Integration Accuracy     IntAcc      ... 4.020
Radial Grid Type                 RadialGrid  ... OptM3 with GC (2021)
Angular Grid (max. ang.)         AngularGrid ... 2 (Lebedev-110)
Angular grid pruning method      GridPruning ... 4 (adaptive)
Weight generation scheme         WeightScheme... Becke
Basis function cutoff            BFCut       ... 1.0000e-11
Integration weight cutoff        WCut        ... 1.0000e-14
Angular grids for H and He will be reduced by one unit
Partially contracted basis set               ... on
Rotationally invariant grid construction     ... off

Total number of grid points                  ...    13990
Total number of batches                      ...      225
Average number of points per batch           ...       62
Average number of grid points per atom       ...     1399
UseSFitting                                  ... on

GRIDX 3
-------
General Integration Accuracy     IntAcc      ... 4.338
Radial Grid Type                 RadialGrid  ... OptM3 with GC (2021)
Angular Grid (max. ang.)         AngularGrid ... 3 (Lebedev-194)
Angular grid pruning method      GridPruning ... 4 (adaptive)
Weight generation scheme         WeightScheme... Becke
Basis function cutoff            BFCut       ... 1.0000e-11
Integration weight cutoff        WCut        ... 1.0000e-14
Angular grids for H and He will be reduced by one unit
Partially contracted basis set               ... on
Rotationally invariant grid construction     ... off

Total number of grid points                  ...    30905
Total number of batches                      ...      488
Average number of points per batch           ...       63
Average number of grid points per atom       ...     3090
UseSFitting                                  ... on

Time for X-Grid setup             =    0.591 sec

--------------
SCF ITERATIONS
--------------
ITER       Energy         Delta-E        Max-DP      RMS-DP      [F,P]     Damp
               ***  Starting incremental Fock matrix formation  ***
  0   -230.6063087203   0.000000000000 0.04129025  0.00259475  0.1309841 0.7000
  1   -230.6632726314  -0.056963911106 0.02977212  0.00196434  0.0675133 0.7000
                               ***Turning on DIIS***
  2   -230.6890512563  -0.025778624842 0.05047204  0.00346039  0.0329572 0.0000
  3   -230.7263573275  -0.037306071230 0.02204437  0.00139468  0.0365899 0.0000
  4   -230.7352160712  -0.008858743732 0.00923065  0.00045162  0.0119212 0.0000
  5   -230.7357223419  -0.000506270663 0.00261375  0.00012705  0.0044932 0.0000
                      *** Initiating the SOSCF procedure ***
                           *** Shutting down DIIS ***
                      *** Re-Reading the Fockian *** 
                      *** Removing any level shift *** 
ITER      Energy       Delta-E        Grad      Rot      Max-DP    RMS-DP
  6   -230.73577032  -0.0000479802  0.000268  0.000268  0.001050  0.000059
               *** Restarting incremental Fock matrix formation ***
  7   -230.73579856  -0.0000282425  0.000418  0.001677  0.001210  0.000062
  8   -230.73579322   0.0000053422  0.000861  0.001127  0.000771  0.000041
  9   -230.73580027  -0.0000070466  0.000136  0.000658  0.000465  0.000018
 10   -230.73579949   0.0000007790  0.000348  0.000480  0.000341  0.000013
 11   -230.73580040  -0.0000009075  0.000016  0.000067  0.000082  0.000002
 12   -230.73580039   0.0000000064  0.000028  0.000045  0.000052  0.000001
                  ***Gradient check signals convergence***
              ***Rediagonalizing the Fockian in SOSCF/NRSCF***

               *****************************************************
               *                     SUCCESS                       *
               *           SCF CONVERGED AFTER  13 CYCLES          *
               *****************************************************

Old exchange energy                            =     -6.484042290 Eh
New exchange energy                            =     -6.484053125 Eh
Exchange energy change after final integration =     -0.000010835 Eh
Total energy after final integration           =   -230.735811236 Eh
Final COS-X integration done in                =     3.942 sec

----------------
TOTAL SCF ENERGY
----------------

Total Energy       :         -230.73581124 Eh           -6278.64062 eV

Components:
Nuclear Repulsion  :          186.35104764 Eh            5070.86980 eV
Electronic Energy  :         -417.08685887 Eh          -11349.51043 eV
One Electron Energy:         -678.44791066 Eh          -18461.50621 eV
Two Electron Energy:          261.36105179 Eh            7111.99579 eV
Max COSX asymmetry :            0.00000090 Eh               0.00002 eV

Virial components:
Potential Energy   :         -460.12096256 Eh          -12520.52792 eV
Kinetic Energy     :          229.38515132 Eh            6241.88730 eV
Virial Ratio       :            2.00588818


DFT components:
N(Alpha)           :       20.000007742232 electrons
N(Beta)            :       20.000007742232 electrons
N(Total)           :       40.000015484465 electrons
E(X)               :      -25.767364938569 Eh       
E(C)               :       -1.567755644543 Eh       
E(XC)              :      -27.335120583112 Eh       
DFET-embed. en.    :        0.000000000000 Eh       

---------------
SCF CONVERGENCE
---------------

  Last Energy change         ...   -9.9723e-09  Tolerance :   1.0000e-08
  Last MAX-Density change    ...    4.4409e-15  Tolerance :   1.0000e-07
  Last RMS-Density change    ...    8.6843e-17  Tolerance :   5.0000e-09
  Last Orbital Gradient      ...    1.4047e-06  Tolerance :   1.0000e-05
  Last Orbital Rotation      ...    5.0758e-06  Tolerance :   1.0000e-05

             **** THE GBW FILE WAS UPDATED (benzyne_b3lyp.gbw) ****
             **** DENSITY benzyne_b3lyp.scfp WAS UPDATED ****
             **** ENERGY FILE WAS UPDATED (benzyne_b3lyp.en.tmp) ****
             **** THE GBW FILE WAS UPDATED (benzyne_b3lyp.gbw) ****
             **** DENSITY benzyne_b3lyp.scfp WAS UPDATED ****
----------------
ORBITAL ENERGIES
----------------

  NO   OCC          E(Eh)            E(eV) 
   0   2.0000     -10.222689      -278.1735 
   1   2.0000     -10.208969      -277.8002 
   2   2.0000     -10.197682      -277.4930 
   3   2.0000     -10.194593      -277.4090 
   4   2.0000     -10.192197      -277.3438 
   5   2.0000     -10.177099      -276.9329 
   6   2.0000      -0.859227       -23.3807 
   7   2.0000      -0.756102       -20.5746 
   8   2.0000      -0.733847       -19.9690 
   9   2.0000      -0.613696       -16.6995 
  10   2.0000      -0.569837       -15.5061 
  11   2.0000      -0.505322       -13.7505 
  12   2.0000      -0.447487       -12.1767 
  13   2.0000      -0.441472       -12.0131 
  14   2.0000      -0.396347       -10.7851 
  15   2.0000      -0.379616       -10.3299 
  16   2.0000      -0.373078       -10.1520 
  17   2.0000      -0.269509        -7.3337 
  18   2.0000      -0.264581        -7.1996 
  19   2.0000      -0.245401        -6.6777 
  20   0.0000      -0.074708        -2.0329 
  21   0.0000      -0.020447        -0.5564 
  22   0.0000       0.024468         0.6658 
  23   0.0000       0.103106         2.8056 
  24   0.0000       0.145284         3.9534 
  25   0.0000       0.163728         4.4553 
  26   0.0000       0.178455         4.8560 
  27   0.0000       0.180078         4.9002 
  28   0.0000       0.265102         7.2138 
  29   0.0000       0.288055         7.8384 
  30   0.0000       0.316038         8.5998 
  31   0.0000       0.372390        10.1332 
  32   0.0000       0.471734        12.8365 
  33   0.0000       0.475879        12.9493 
  34   0.0000       0.515383        14.0243 
  35   0.0000       0.519227        14.1289 
  36   0.0000       0.552086        15.0230 
  37   0.0000       0.587407        15.9842 
  38   0.0000       0.587878        15.9970 
  39   0.0000       0.597215        16.2511 
  40   0.0000       0.606774        16.5112 
  41   0.0000       0.610531        16.6134 
  42   0.0000       0.613839        16.7034 
  43   0.0000       0.655079        17.8256 
  44   0.0000       0.675347        18.3771 
  45   0.0000       0.688708        18.7407 
  46   0.0000       0.750684        20.4271 
  47   0.0000       0.756788        20.5932 
  48   0.0000       0.799432        21.7537 
  49   0.0000       0.837451        22.7882 
  50   0.0000       0.843795        22.9608 
  51   0.0000       0.863065        23.4852 
  52   0.0000       0.911594        24.8057 
  53   0.0000       0.937883        25.5211 
  54   0.0000       0.943939        25.6859 
  55   0.0000       1.031340        28.0642 
  56   0.0000       1.080391        29.3989 
  57   0.0000       1.141490        31.0615 
  58   0.0000       1.170937        31.8628 
  59   0.0000       1.261776        34.3347 
  60   0.0000       1.318730        35.8845 
  61   0.0000       1.343823        36.5673 
  62   0.0000       1.386802        37.7368 
  63   0.0000       1.471889        40.0521 
  64   0.0000       1.494623        40.6708 
  65   0.0000       1.521413        41.3997 
  66   0.0000       1.566127        42.6165 
  67   0.0000       1.637619        44.5619 
  68   0.0000       1.710222        46.5375 
  69   0.0000       1.724404        46.9234 
  70   0.0000       1.833889        49.9027 
  71   0.0000       1.889140        51.4061 
  72   0.0000       1.946557        52.9685 
  73   0.0000       2.036715        55.4218 
  74   0.0000       2.082548        56.6690 
  75   0.0000       2.090868        56.8954 
  76   0.0000       2.142134        58.2904 
  77   0.0000       2.179851        59.3168 
  78   0.0000       2.244937        61.0878 
  79   0.0000       2.248378        61.1815 
  80   0.0000       2.343304        63.7645 
  81   0.0000       2.412018        65.6344 
  82   0.0000       2.459910        66.9376 
  83   0.0000       2.505660        68.1825 
  84   0.0000       2.642964        71.9187 
  85   0.0000       2.662128        72.4402 
  86   0.0000       2.687461        73.1295 
  87   0.0000       2.708907        73.7131 
  88   0.0000       2.777146        75.5700 
  89   0.0000       2.837945        77.2244 
  90   0.0000       3.102197        84.4151 
  91   0.0000       3.385846        92.1335 

                    ********************************
                    * MULLIKEN POPULATION ANALYSIS *
                    ********************************

-----------------------
MULLIKEN ATOMIC CHARGES
-----------------------
   0 C :   -0.006898
   1 C :   -0.003431
   2 C :   -0.166053
   3 C :   -0.111085
   4 C :   -0.119455
   5 C :   -0.164691
   6 H :    0.132280
   7 H :    0.142350
   8 H :    0.149455
   9 H :    0.147529
Sum of atomic charges:    0.0000000

--------------------------------
MULLIKEN REDUCED ORBITAL CHARGES
--------------------------------
  0 C s       :     3.217550  s :     3.217550
      pz      :     0.951542  p :     2.758484
      px      :     0.840344
      py      :     0.966598
      dz2     :     0.007916  d :     0.030864
      dxz     :     0.009817
      dyz     :     0.008497
      dx2y2   :     0.002443
      dxy     :     0.002191
  1 C s       :     3.154992  s :     3.154992
      pz      :     0.976879  p :     2.813202
      px      :     0.897434
      py      :     0.938889
      dz2     :     0.009867  d :     0.035237
      dxz     :     0.009893
      dyz     :     0.008426
      dx2y2   :     0.003440
      dxy     :     0.003613
  2 C s       :     3.213462  s :     3.213462
      pz      :     1.000031  p :     2.911369
      px      :     0.907852
      py      :     1.003486
      dz2     :     0.015713  d :     0.041222
      dxz     :     0.010971
      dyz     :     0.002199
      dx2y2   :     0.006118
      dxy     :     0.006221
  3 C s       :     3.178040  s :     3.178040
      pz      :     0.935704  p :     2.897705
      px      :     0.956784
      py      :     1.005217
      dz2     :     0.008867  d :     0.035339
      dxz     :     0.012690
      dyz     :     0.005101
      dx2y2   :     0.005757
      dxy     :     0.002925
  4 C s       :     3.183591  s :     3.183591
      pz      :     0.954283  p :     2.900200
      px      :     0.952162
      py      :     0.993754
      dz2     :     0.008622  d :     0.035664
      dxz     :     0.012744
      dyz     :     0.005441
      dx2y2   :     0.005685
      dxy     :     0.003173
  5 C s       :     3.236566  s :     3.236566
      pz      :     0.974872  p :     2.892413
      px      :     0.880313
      py      :     1.037228
      dz2     :     0.013393  d :     0.035713
      dxz     :     0.010050
      dyz     :     0.002000
      dx2y2   :     0.005228
      dxy     :     0.005042
  6 H s       :     0.867720  s :     0.867720
  7 H s       :     0.857650  s :     0.857650
  8 H s       :     0.850545  s :     0.850545
  9 H s       :     0.852471  s :     0.852471


                     *******************************
                     * LOEWDIN POPULATION ANALYSIS *
                     *******************************

----------------------
LOEWDIN ATOMIC CHARGES
----------------------
   0 C :   -0.008324
   1 C :   -0.064660
   2 C :   -0.101269
   3 C :   -0.135096
   4 C :   -0.126982
   5 C :   -0.115616
   6 H :    0.128654
   7 H :    0.140337
   8 H :    0.142988
   9 H :    0.139968

-------------------------------
LOEWDIN REDUCED ORBITAL CHARGES
-------------------------------
  0 C s       :     2.977973  s :     2.977973
      pz      :     1.125996  p :     2.959963
      px      :     0.874889
      py      :     0.959077
      dz2     :     0.024122  d :     0.070389
      dxz     :     0.019973
      dyz     :     0.017793
      dx2y2   :     0.004795
      dxy     :     0.003706
  1 C s       :     2.957148  s :     2.957148
      pz      :     1.149792  p :     3.025306
      px      :     0.939933
      py      :     0.935581
      dz2     :     0.030042  d :     0.082206
      dxz     :     0.019361
      dyz     :     0.018245
      dx2y2   :     0.008052
      dxy     :     0.006505
  2 C s       :     2.921821  s :     2.921821
      pz      :     1.072188  p :     3.085191
      px      :     1.024269
      py      :     0.988734
      dz2     :     0.033162  d :     0.094257
      dxz     :     0.028715
      dyz     :     0.003191
      dx2y2   :     0.015951
      dxy     :     0.013238
  3 C s       :     2.925492  s :     2.925492
      pz      :     1.065260  p :     3.126237
      px      :     1.063713
      py      :     0.997264
      dz2     :     0.024116  d :     0.083368
      dxz     :     0.031544
      dyz     :     0.010971
      dx2y2   :     0.011210
      dxy     :     0.005527
  4 C s       :     2.925621  s :     2.925621
      pz      :     1.072428  p :     3.117543
      px      :     1.061688
      py      :     0.983427
      dz2     :     0.023130  d :     0.083818
      dxz     :     0.031693
      dyz     :     0.011684
      dx2y2   :     0.011276
      dxy     :     0.006035
  5 C s       :     2.949186  s :     2.949186
      pz      :     1.069346  p :     3.088002
      px      :     0.992758
      py      :     1.025897
      dz2     :     0.026692  d :     0.078429
      dxz     :     0.025772
      dyz     :     0.002955
      dx2y2   :     0.012841
      dxy     :     0.010169
  6 H s       :     0.871346  s :     0.871346
  7 H s       :     0.859663  s :     0.859663
  8 H s       :     0.857012  s :     0.857012
  9 H s       :     0.860032  s :     0.860032


                      *****************************
                      * MAYER POPULATION ANALYSIS *
                      *****************************

  NA   - Mulliken gross atomic population
  ZA   - Total nuclear charge
  QA   - Mulliken gross atomic charge
  VA   - Mayer's total valence
  BVA  - Mayer's bonded valence
  FA   - Mayer's free valence

  ATOM       NA         ZA         QA         VA         BVA        FA
  0 C      6.0069     6.0000    -0.0069     3.8751     3.8751    -0.0000
  1 C      6.0034     6.0000    -0.0034     3.8628     3.8628     0.0000
  2 C      6.1661     6.0000    -0.1661     3.9979     3.9979     0.0000
  3 C      6.1111     6.0000    -0.1111     3.9360     3.9360     0.0000
  4 C      6.1195     6.0000    -0.1195     3.9336     3.9336     0.0000
  5 C      6.1647     6.0000    -0.1647     3.9327     3.9327    -0.0000
  6 H      0.8677     1.0000     0.1323     0.9326     0.9326    -0.0000
  7 H      0.8576     1.0000     0.1424     0.9364     0.9364    -0.0000
  8 H      0.8505     1.0000     0.1495     0.9349     0.9349    -0.0000
  9 H      0.8525     1.0000     0.1475     0.9353     0.9353     0.0000

  Mayer bond orders larger than 0.100000
B(  0-C ,  1-C ) :   2.3916 B(  0-C ,  5-C ) :   1.3009 B(  1-C ,  2-C ) :   1.3426 
B(  2-C ,  3-C ) :   1.5372 B(  2-C ,  5-C ) :   0.1342 B(  2-C ,  6-H ) :   0.9258 
B(  3-C ,  4-C ) :   1.3812 B(  3-C ,  7-H ) :   0.9235 B(  4-C ,  5-C ) :   1.5384 
B(  4-C ,  8-H ) :   0.9201 B(  5-C ,  9-H ) :   0.9249 

-------
TIMINGS
-------

Total SCF time: 0 days 0 hours 0 min 31 sec 

Total time                  ....      31.938 sec
Sum of individual times     ....      31.777 sec  ( 99.5%)

Fock matrix formation       ....      30.313 sec  ( 94.9%)
  Split-RI-J                ....       2.447 sec  (  8.1% of F)
  Chain of spheres X        ....      21.658 sec  ( 71.4% of F)
  XC integration            ....       6.238 sec  ( 20.6% of F)
    Basis function eval.    ....       2.822 sec  ( 45.2% of XC)
    Density eval.           ....       1.131 sec  ( 18.1% of XC)
    XC-Functional eval.     ....       0.887 sec  ( 14.2% of XC)
    XC-Potential eval.      ....       1.171 sec  ( 18.8% of XC)
Diagonalization             ....       0.015 sec  (  0.0%)
Density matrix formation    ....       0.001 sec  (  0.0%)
Population analysis         ....       0.002 sec  (  0.0%)
Initial guess               ....       0.198 sec  (  0.6%)
Orbital Transformation      ....       0.000 sec  (  0.0%)
Orbital Orthonormalization  ....       0.000 sec  (  0.0%)
DIIS solution               ....       0.003 sec  (  0.0%)
SOSCF solution              ....       0.006 sec  (  0.0%)
Grid generation             ....       1.240 sec  (  3.9%)

Maximum memory used throughout the entire SCF-calculation: 55.9 MB

-------------------------   --------------------
FINAL SINGLE POINT ENERGY      -230.735811235830
-------------------------   --------------------

------------------------------------------------------------------------------
                         ORCA SCF GRADIENT CALCULATION
------------------------------------------------------------------------------

 ... reading COSX grid (gridx3)
Gradient of the Kohn-Sham DFT energy:
Kohn-Sham wavefunction type      ... RKS
Hartree-Fock exchange scaling    ...    0.200
Number of operators              ...    1
Number of atoms                  ...   10
Basis set dimensions             ...   92
Integral neglect threshold       ... 2.5e-11
Integral primitive cutoff        ... 2.5e-12
SHARK Integral package           ... ON

Nuc. rep. gradient       (SHARK) ... done (  0.0 sec)
HCore & Overlap gradient (SHARK) ... done (  0.1 sec)
RI-J gradient            (SHARK) ... done (  0.6 sec)
COSX-gradient                    ... done (  4.5 sec)
Exchange-correlation gradient    ... done

------------------
CARTESIAN GRADIENT
------------------

   1   C   :   -0.057511077   -0.000000010    0.138602075
   2   C   :   -0.017185183    0.000000003   -0.071989798
   3   C   :   -0.003694710   -0.000000003   -0.041667786
   4   C   :    0.011209554   -0.000000006   -0.006679894
   5   C   :    0.017083842    0.000000000    0.004796461
   6   C   :    0.042358062    0.000000001   -0.019265814
   7   H   :   -0.005135735   -0.000000002   -0.000801617
   8   H   :    0.003023708    0.000000002   -0.001274074
   9   H   :    0.002864770    0.000000000    0.001856763
  10   H   :    0.007044742   -0.000000001   -0.003609793

Difference to translation invariance:
           :    0.0000579721   -0.0000000156   -0.0000334759

Difference to rotation invariance:
           :    0.0000000211   -0.0002251677   -0.0000000273

Norm of the cartesian gradient     ...    0.1803008311
RMS gradient                       ...    0.0329182774
MAX gradient                       ...    0.1386020753

-------
TIMINGS
-------

Total SCF gradient time            ...        8.056 sec

One electron gradient       ....       0.077 sec  (  1.0%)
RI-J Coulomb gradient       ....       0.602 sec  (  7.5%)
COSX gradient               ....       4.505 sec  ( 55.9%)
XC gradient                 ....       2.524 sec  ( 31.3%)

Maximum memory used throughout the entire SCFGRAD-calculation: 44.0 MB
------------------------------------------------------------------------------
                         ORCA GEOMETRY RELAXATION STEP
------------------------------------------------------------------------------

Reading the OPT-File                    .... done
Getting information on internals        .... done
Copying old internal coords+grads       .... done
Making the new internal coordinates     .... (new redundants).... done
Validating the new internal coordinates .... (new redundants).... done
Calculating the B-matrix                .... done
Calculating the G,G- and P matrices     .... done
Transforming gradient to internals      .... done
Projecting the internal gradient        .... done
Number of atoms                         ....  10
Number of internal coordinates          ....  41
Current Energy                          ....  -230.735811236 Eh
Current gradient norm                   ....     0.180300831 Eh/bohr
Maximum allowed component of the step   ....  0.300
Current trust radius                    ....  0.300
Evaluating the initial hessian          ....  (Almloef) done
Projecting the Hessian                  .... done
Forming the augmented Hessian           .... done
Diagonalizing the augmented Hessian     .... done
Last element of RFO vector              ....  0.974032168
Lowest eigenvalues of augmented Hessian:
 -0.028989200  0.018713995  0.021319839  0.024156040  0.024859337
Length of the computed step             ....  0.232445778
The final length of the internal step   ....  0.232445778
Converting the step to cartesian space:
 Initial RMS(Int)=    0.0363019316
Transforming coordinates:
 Iter   0:  RMS(Cart)=    0.0502393939 RMS(Int)=    1.6999955515
 Iter   1:  RMS(Cart)=    0.0008000356 RMS(Int)=    0.0006867373
 Iter   2:  RMS(Cart)=    0.0000331053 RMS(Int)=    0.0000230985
 Iter   3:  RMS(Cart)=    0.0000013273 RMS(Int)=    0.0000012353
 Iter   4:  RMS(Cart)=    0.0000000483 RMS(Int)=    0.0000000366
done
Storing new coordinates                 .... done

                                .--------------------.
          ----------------------|Geometry convergence|-------------------------
          Item                value                   Tolerance       Converged
          ---------------------------------------------------------------------
          RMS gradient        0.0216754122            0.0001000000      NO
          MAX gradient        0.0973107280            0.0003000000      NO
          RMS step            0.0363019316            0.0020000000      NO
          MAX step            0.1698245889            0.0040000000      NO
          ........................................................
          Max(Bonds)      0.0899      Max(Angles)    4.71
          Max(Dihed)        0.00      Max(Improp)    0.00
          ---------------------------------------------------------------------

The optimization has not yet converged - more geometry cycles are needed


    ---------------------------------------------------------------------------
                         Redundant Internal Coordinates
                            (Angstroem and degrees)

        Definition                    Value    dE/dq     Step     New-Value
    ----------------------------------------------------------------------------
     1. B(C   1,C   0)                1.2000 -0.097311  0.0416    1.2416   
     2. B(C   2,C   1)                1.4000 -0.002765  0.0038    1.4038   
     3. B(C   3,C   2)                1.4000  0.008978 -0.0091    1.3909   
     4. B(C   4,C   3)                1.4000 -0.025086  0.0180    1.4180   
     5. B(C   5,C   4)                1.4000  0.002822 -0.0038    1.3962   
     6. B(C   5,C   0)                1.5100  0.075425 -0.0899    1.4201   
     7. B(H   6,C   2)                1.0890 -0.000796  0.0011    1.0901   
     8. B(H   7,C   3)                1.0890  0.001979 -0.0027    1.0863   
     9. B(H   8,C   4)                1.0890  0.001545 -0.0021    1.0869   
    10. B(H   9,C   5)                1.0890  0.003604 -0.0049    1.0841   
    11. A(C   1,C   0,C   5)          126.59 -0.001661    1.19    127.77   
    12. A(C   0,C   1,C   2)          120.00 -0.014708    2.53    122.53   
    13. A(C   1,C   2,H   6)          120.00 -0.023004    3.15    123.15   
    14. A(C   1,C   2,C   3)          120.00  0.035457   -4.71    115.29   
    15. A(C   3,C   2,H   6)          120.00 -0.012453    1.56    121.56   
    16. A(C   2,C   3,C   4)          120.00 -0.010277    0.62    120.62   
    17. A(C   4,C   3,H   7)          120.00  0.002441    0.10    120.10   
    18. A(C   2,C   3,H   7)          120.00  0.007836   -0.72    119.28   
    19. A(C   5,C   4,H   8)          120.00  0.013702   -1.51    118.49   
    20. A(C   3,C   4,H   8)          120.00  0.007471   -0.57    119.43   
    21. A(C   3,C   4,C   5)          120.00 -0.021173    2.08    122.08   
    22. A(C   4,C   5,H   9)          120.00 -0.013408    1.94    121.94   
    23. A(C   0,C   5,H   9)          126.59  0.001046   -0.25    126.34   
    24. A(C   0,C   5,C   4)          113.41  0.012362   -1.70    111.72   
    25. D(C   2,C   1,C   0,C   5)      0.00 -0.000000    0.00      0.00   
    26. D(H   6,C   2,C   1,C   0)    180.00  0.000000   -0.00    180.00   
    27. D(C   3,C   2,C   1,C   0)      0.00  0.000000   -0.00     -0.00   
    28. D(H   7,C   3,C   2,C   1)    180.00 -0.000000    0.00    180.00   
    29. D(C   4,C   3,C   2,H   6)    180.00  0.000000   -0.00    180.00   
    30. D(H   7,C   3,C   2,H   6)      0.00 -0.000000    0.00      0.00   
    31. D(C   4,C   3,C   2,C   1)      0.00  0.000000   -0.00     -0.00   
    32. D(H   8,C   4,C   3,C   2)    180.00 -0.000000    0.00    180.00   
    33. D(C   5,C   4,C   3,H   7)    180.00  0.000000   -0.00    180.00   
    34. D(H   8,C   4,C   3,H   7)      0.00  0.000000   -0.00     -0.00   
    35. D(C   5,C   4,C   3,C   2)      0.00 -0.000000    0.00      0.00   
    36. D(C   0,C   5,C   4,C   3)      0.00 -0.000000    0.00      0.00   
    37. D(H   9,C   5,C   0,C   1)    180.00  0.000000   -0.00    180.00   
    38. D(C   0,C   5,C   4,H   8)    180.00 -0.000000    0.00    180.00   
    39. D(C   4,C   5,C   0,C   1)      0.00  0.000000   -0.00     -0.00   
    40. D(H   9,C   5,C   4,H   8)      0.00  0.000000   -0.00     -0.00   
    41. D(H   9,C   5,C   4,C   3)    180.00  0.000000   -0.00    180.00   
    ----------------------------------------------------------------------------

         *************************************************************
         *                GEOMETRY OPTIMIZATION CYCLE   2            *
         *************************************************************
---------------------------------
CARTESIAN COORDINATES (ANGSTROEM)
---------------------------------
  C      0.065488    0.000000   -0.066337
  C      0.049574   -0.000000    1.175181
  C      1.223082   -0.000000    1.945920
  C      2.410645    0.000000    1.221550
  C      2.391991    0.000000   -0.196270
  C      1.199138   -0.000000   -0.921418
  H      1.219987   -0.000000    3.035995
  H      3.357630    0.000000    1.753814
  H      3.331395   -0.000000   -0.742976
  H      1.186501   -0.000000   -2.005459

----------------------------
CARTESIAN COORDINATES (A.U.)
----------------------------
  NO LB      ZA    FRAG     MASS         X           Y           Z
   0 C     6.0000    0    12.011    0.123755    0.000000   -0.125360
   1 C     6.0000    0    12.011    0.093681   -0.000000    2.220771
   2 C     6.0000    0    12.011    2.311290   -0.000000    3.677257
   3 C     6.0000    0    12.011    4.555458    0.000000    2.308396
   4 C     6.0000    0    12.011    4.520209    0.000000   -0.370896
   5 C     6.0000    0    12.011    2.266043   -0.000000   -1.741227
   6 H     1.0000    0     1.008    2.305442   -0.000000    5.737198
   7 H     1.0000    0     1.008    6.345001    0.000000    3.314228
   8 H     1.0000    0     1.008    6.295424   -0.000000   -1.404022
   9 H     1.0000    0     1.008    2.242162   -0.000000   -3.789769

--------------------------------
INTERNAL COORDINATES (ANGSTROEM)
--------------------------------
 C      0   0   0     0.000000000000     0.00000000     0.00000000
 C      1   0   0     1.241620911500     0.00000000     0.00000000
 C      2   1   0     1.403980119771   122.56177704     0.00000000
 C      3   2   1     1.391048818147   115.32213557     0.00000000
 C      4   3   2     1.417943004998   120.62792138     0.00000000
 C      5   4   3     1.395972100043   122.04960812     0.00000000
 H      3   2   1     1.090078526028   123.13351824   180.00000000
 H      4   3   2     1.086317360777   119.27967981   180.00000000
 H      5   4   3     1.086906827016   119.44445627   180.00000085
 H      6   5   4     1.084115204233   121.96374506   180.00000000

---------------------------
INTERNAL COORDINATES (A.U.)
---------------------------
 C      0   0   0     0.000000000000     0.00000000     0.00000000
 C      1   0   0     2.346323484885     0.00000000     0.00000000
 C      2   1   0     2.653137923837   122.56177704     0.00000000
 C      3   2   1     2.628701305213   115.32213557     0.00000000
 C      4   3   2     2.679523952956   120.62792138     0.00000000
 C      5   4   3     2.638004959676   122.04960812     0.00000000
 H      3   2   1     2.059949878661   123.13351824   180.00000000
 H      4   3   2     2.052842306392   119.27967981   180.00000000
 H      5   4   3     2.053956236150   119.44445627   180.00000085
 H      6   5   4     2.048680833621   121.96374506   180.00000000

------------------------------------------------------------------------------
                   ___                                                        
                  /   \      - P O W E R E D   B Y -                         
                 /     \                                                     
                 |  |  |   _    _      __       _____    __    __             
                 |  |  |  | |  | |    /  \     |  _  \  |  |  /  |          
                  \  \/   | |  | |   /    \    | | | |  |  | /  /          
                 / \  \   | |__| |  /  /\  \   | |_| |  |  |/  /          
                |  |  |   |  __  | /  /__\  \  |    /   |      \           
                |  |  |   | |  | | |   __   |  |    \   |  |\   \          
                \     /   | |  | | |  |  |  |  | |\  \  |  | \   \       
                 \___/    |_|  |_| |__|  |__|  |_| \__\ |__|  \__/        
                                                                              
                      - O R C A' S   B I G   F R I E N D -                    
                                      &                                       
                       - I N T E G R A L  F E E D E R -                       
                                                                              
 v1 FN, 2020, v2 2021                                                         
------------------------------------------------------------------------------


Reading SHARK input file benzyne_b3lyp.SHARKINP.tmp ... ok
----------------------
SHARK INTEGRAL PACKAGE
----------------------

Number of atoms                             ...     10
Number of basis functions                   ...     92
Number of shells                            ...     44
Maximum angular momentum                    ...      2
Integral batch strategy                     ... SHARK/LIBINT Hybrid
RI-J (if used) integral strategy            ... SPLIT-RIJ (Revised 2003 algorithm where possible)
Printlevel                                  ...      1
Contraction scheme used                     ... SEGMENTED contraction
Coulomb Range Separation                    ... NOT USED
Exchange Range Separation                   ... NOT USED
Finite Nucleus Model                        ... NOT USED
Auxiliary Coulomb fitting basis             ... AVAILABLE
   # of basis functions in Aux-J            ...    338
   # of shells in Aux-J                     ...    110
   Maximum angular momentum in Aux-J        ...      4
Auxiliary J/K fitting basis                 ... NOT available
Auxiliary Correlation fitting basis         ... NOT available
Auxiliary 'external' fitting basis          ... NOT available
Integral threshold                          ...     2.500000e-11
Primitive cut-off                           ...     2.500000e-12
Primitive pair pre-selection threshold      ...     2.500000e-12

Calculating pre-screening integrals         ... done (  0.1 sec) Dimension = 44
Organizing shell pair data                  ... done (  0.0 sec)
Shell pair information
Total number of shell pairs                 ...       990
Shell pairs after pre-screening             ...       976
Total number of primitive shell pairs       ...      5809
Primitive shell pairs kept                  ...      4222
          la=0 lb=0:    337 shell pairs
          la=1 lb=0:    312 shell pairs
          la=1 lb=1:     78 shell pairs
          la=2 lb=0:    156 shell pairs
          la=2 lb=1:     72 shell pairs
          la=2 lb=2:     21 shell pairs

Calculating one electron integrals          ... done (  0.0 sec)
Calculating RI/J V-Matrix + Cholesky decomp.... done (  0.0 sec)
Calculating Nuclear repulsion               ... done (  0.0 sec) ENN=    186.970861775840 Eh

SHARK setup successfully completed in   0.2 seconds

Maximum memory used throughout the entire GTOINT-calculation: 12.3 MB

Diagonalization of the overlap matrix:
Smallest eigenvalue                        ... 7.615e-04
Time for diagonalization                   ...    0.002 sec
Threshold for overlap eigenvalues          ... 1.000e-08
Number of eigenvalues below threshold      ... 0
Time for construction of square roots      ...    0.000 sec
Total time needed                          ...    0.002 sec

-------------------
DFT GRID GENERATION
-------------------

General Integration Accuracy     IntAcc      ... 4.388
Radial Grid Type                 RadialGrid  ... OptM3 with GC (2021)
Angular Grid (max. ang.)         AngularGrid ... 4 (Lebedev-302)
Angular grid pruning method      GridPruning ... 4 (adaptive)
Weight generation scheme         WeightScheme... Becke
Basis function cutoff            BFCut       ... 1.0000e-11
Integration weight cutoff        WCut        ... 1.0000e-14
Angular grids for H and He will be reduced by one unit
Partially contracted basis set               ... off
Rotationally invariant grid construction     ... off

Total number of grid points                  ...    49155
Total number of batches                      ...      772
Average number of points per batch           ...       63
Average number of grid points per atom       ...     4916
Time for grid setup =    0.517 sec

--------------------
COSX GRID GENERATION
--------------------

GRIDX 1
-------
General Integration Accuracy     IntAcc      ... 3.816
Radial Grid Type                 RadialGrid  ... OptM3 with GC (2021)
Angular Grid (max. ang.)         AngularGrid ... 1 (Lebedev-50)
Angular grid pruning method      GridPruning ... 4 (adaptive)
Weight generation scheme         WeightScheme... Becke
Basis function cutoff            BFCut       ... 1.0000e-11
Integration weight cutoff        WCut        ... 1.0000e-14
Angular grids for H and He will be reduced by one unit
Partially contracted basis set               ... on
Rotationally invariant grid construction     ... off

Total number of grid points                  ...     6272
Total number of batches                      ...      102
Average number of points per batch           ...       61
Average number of grid points per atom       ...      627
UseSFitting                                  ... on

GRIDX 2
-------
General Integration Accuracy     IntAcc      ... 4.020
Radial Grid Type                 RadialGrid  ... OptM3 with GC (2021)
Angular Grid (max. ang.)         AngularGrid ... 2 (Lebedev-110)
Angular grid pruning method      GridPruning ... 4 (adaptive)
Weight generation scheme         WeightScheme... Becke
Basis function cutoff            BFCut       ... 1.0000e-11
Integration weight cutoff        WCut        ... 1.0000e-14
Angular grids for H and He will be reduced by one unit
Partially contracted basis set               ... on
Rotationally invariant grid construction     ... off

Total number of grid points                  ...    13987
Total number of batches                      ...      224
Average number of points per batch           ...       62
Average number of grid points per atom       ...     1399
UseSFitting                                  ... on

GRIDX 3
-------
General Integration Accuracy     IntAcc      ... 4.338
Radial Grid Type                 RadialGrid  ... OptM3 with GC (2021)
Angular Grid (max. ang.)         AngularGrid ... 3 (Lebedev-194)
Angular grid pruning method      GridPruning ... 4 (adaptive)
Weight generation scheme         WeightScheme... Becke
Basis function cutoff            BFCut       ... 1.0000e-11
Integration weight cutoff        WCut        ... 1.0000e-14
Angular grids for H and He will be reduced by one unit
Partially contracted basis set               ... on
Rotationally invariant grid construction     ... off

Total number of grid points                  ...    30892
Total number of batches                      ...      487
Average number of points per batch           ...       63
Average number of grid points per atom       ...     3089
UseSFitting                                  ... on

Time for X-Grid setup             =    0.596 sec

--------------
SCF ITERATIONS
--------------
ITER       Energy         Delta-E        Max-DP      RMS-DP      [F,P]     Damp
               ***  Starting incremental Fock matrix formation  ***
  0   -230.7503847463   0.000000000000 0.00554650  0.00034196  0.0191027 0.7000
                      *** Initiating the SOSCF procedure ***
                      *** Re-Reading the Fockian *** 
                      *** Removing any level shift *** 
ITER      Energy       Delta-E        Grad      Rot      Max-DP    RMS-DP
  1   -230.75164109  -0.0012563401  0.002454  0.002454  0.017576  0.000999
               *** Restarting incremental Fock matrix formation ***
  2   -230.75436161  -0.0027205209  0.003734  0.018556  0.018652  0.000708
  3   -230.75342228   0.0009393302  0.012170  0.018386  0.012144  0.000499
  4   -230.75462949  -0.0012072087  0.001883  0.005671  0.008153  0.000285
  5   -230.75452155   0.0001079336  0.003483  0.003767  0.005829  0.000182
  6   -230.75469241  -0.0001708612  0.000113  0.000427  0.000388  0.000018
  7   -230.75469222   0.0000001967  0.000160  0.000248  0.000278  0.000010
  8   -230.75469264  -0.0000004238  0.000015  0.000032  0.000035  0.000003
  9   -230.75469264  -0.0000000026  0.000010  0.000015  0.000017  0.000001
 10   -230.75469265  -0.0000000041  0.000004  0.000012  0.000012  0.000001
 11   -230.75469265   0.0000000011  0.000005  0.000007  0.000007  0.000000
                  ***Gradient check signals convergence***
              ***Rediagonalizing the Fockian in SOSCF/NRSCF***

               *****************************************************
               *                     SUCCESS                       *
               *           SCF CONVERGED AFTER  12 CYCLES          *
               *****************************************************

Old exchange energy                            =     -6.484681017 Eh
New exchange energy                            =     -6.484689149 Eh
Exchange energy change after final integration =     -0.000008132 Eh
Total energy after final integration           =   -230.754700780 Eh
Final COS-X integration done in                =     4.021 sec
Total Energy       :         -230.75470078 Eh           -6279.15463 eV
  Last Energy change         ...   -1.7126e-09  Tolerance :   1.0000e-08
  Last MAX-Density change    ...    3.9968e-15  Tolerance :   1.0000e-07
             **** THE GBW FILE WAS UPDATED (benzyne_b3lyp.gbw) ****
             **** DENSITY benzyne_b3lyp.scfp WAS UPDATED ****
             **** ENERGY FILE WAS UPDATED (benzyne_b3lyp.en.tmp) ****
             **** THE GBW FILE WAS UPDATED (benzyne_b3lyp.gbw) ****
             **** DENSITY benzyne_b3lyp.scfp WAS UPDATED ****
Total SCF time: 0 days 0 hours 0 min 33 sec 

Maximum memory used throughout the entire SCF-calculation: 56.0 MB

-------------------------   --------------------
FINAL SINGLE POINT ENERGY      -230.754700779519
-------------------------   --------------------

------------------------------------------------------------------------------
                         ORCA SCF GRADIENT CALCULATION
------------------------------------------------------------------------------

 ... reading COSX grid (gridx3)
Gradient of the Kohn-Sham DFT energy:
Kohn-Sham wavefunction type      ... RKS
Hartree-Fock exchange scaling    ...    0.200
Number of operators              ...    1
Number of atoms                  ...   10
Basis set dimensions             ...   92
Integral neglect threshold       ... 2.5e-11
Integral primitive cutoff        ... 2.5e-12
SHARK Integral package           ... ON

Nuc. rep. gradient       (SHARK) ... done (  0.0 sec)
HCore & Overlap gradient (SHARK) ... done (  0.1 sec)
RI-J gradient            (SHARK) ... done (  0.6 sec)
COSX-gradient                    ... done (  4.5 sec)
Exchange-correlation gradient    ... done

------------------
CARTESIAN GRADIENT
------------------

   1   C   :   -0.020639080    0.000000012    0.027340589
   2   C   :   -0.013494270   -0.000000004   -0.008455147
   3   C   :    0.014962450   -0.000000005   -0.022687753
   4   C   :    0.001026889    0.000000002    0.013521669
   5   C   :   -0.002954187    0.000000003   -0.008125233
   6   C   :    0.022904483   -0.000000008   -0.004278140
   7   H   :   -0.002091919    0.000000002    0.001549473
   8   H   :   -0.000428559   -0.000000005    0.000124397
   9   H   :   -0.000613592   -0.000000000    0.000406535
  10   H   :    0.001375203    0.000000000    0.000590896

Difference to translation invariance:
           :    0.0000474190   -0.0000000032   -0.0000127138

Difference to rotation invariance:
           :    0.0000000200   -0.0001220362   -0.0000000330

Norm of the cartesian gradient     ...    0.0545617639
RMS gradient                       ...    0.0099615696
MAX gradient                       ...    0.0273405890

-------
TIMINGS
-------

Total SCF gradient time            ...        8.040 sec

One electron gradient       ....       0.078 sec  (  1.0%)
RI-J Coulomb gradient       ....       0.596 sec  (  7.4%)
COSX gradient               ....       4.521 sec  ( 56.2%)
XC gradient                 ....       2.499 sec  ( 31.1%)

Maximum memory used throughout the entire SCFGRAD-calculation: 44.0 MB
------------------------------------------------------------------------------
                         ORCA GEOMETRY RELAXATION STEP
------------------------------------------------------------------------------

Reading the OPT-File                    .... done
Getting information on internals        .... done
Copying old internal coords+grads       .... done
Making the new internal coordinates     .... (new redundants).... done
Validating the new internal coordinates .... (new redundants).... done
Calculating the B-matrix                .... done
Calculating the G,G- and P matrices     .... done
Transforming gradient to internals      .... done
Projecting the internal gradient        .... done
Number of atoms                         ....  10
Number of internal coordinates          ....  41
Current Energy                          ....  -230.754700780 Eh
Current gradient norm                   ....     0.054561764 Eh/bohr
Maximum allowed component of the step   ....  0.300
Current trust radius                    ....  0.300
Updating the Hessian (BFGS)             .... done
Forming the augmented Hessian           .... done
Diagonalizing the augmented Hessian     .... done
Last element of RFO vector              ....  0.992251612
Lowest eigenvalues of augmented Hessian:
 -0.004781385  0.018713995  0.021319839  0.024156040  0.024859337
Length of the computed step             ....  0.125214883
The final length of the internal step   ....  0.125214883
Converting the step to cartesian space:
 Initial RMS(Int)=    0.0195552793
Transforming coordinates:
 Iter   0:  RMS(Cart)=    0.0253155053 RMS(Int)=    2.1942705279
 Iter   1:  RMS(Cart)=    0.0003611334 RMS(Int)=    0.0002896274
 Iter   2:  RMS(Cart)=    0.0000086632 RMS(Int)=    0.0000061773
 Iter   3:  RMS(Cart)=    0.0000002419 RMS(Int)=    0.0000002079
 Iter   4:  RMS(Cart)=    0.0000000065 RMS(Int)=    0.0000000046
done
Storing new coordinates                 .... done

                                .--------------------.
          ----------------------|Geometry convergence|-------------------------
          Item                value                   Tolerance       Converged
          ---------------------------------------------------------------------
          Energy change      -0.0188895437            0.0000050000      NO
          RMS gradient        0.0061883665            0.0001000000      NO
          MAX gradient        0.0246315323            0.0003000000      NO
          RMS step            0.0195552793            0.0020000000      NO
          MAX step            0.0866951550            0.0040000000      NO
          ........................................................
          Max(Bonds)      0.0459      Max(Angles)    3.12
          Max(Dihed)        0.00      Max(Improp)    0.00
          ---------------------------------------------------------------------

The optimization has not yet converged - more geometry cycles are needed


    ---------------------------------------------------------------------------
                         Redundant Internal Coordinates
                            (Angstroem and degrees)

        Definition                    Value    dE/dq     Step     New-Value
    ----------------------------------------------------------------------------
     1. B(C   1,C   0)                1.2416 -0.015958  0.0114    1.2531   
     2. B(C   2,C   1)                1.4040  0.005782 -0.0066    1.3974   
     3. B(C   3,C   2)                1.3910 -0.007945  0.0089    1.3999   
     4. B(C   4,C   3)                1.4179  0.000060 -0.0002    1.4178   
     5. B(C   5,C   4)                1.3960 -0.005683  0.0065    1.4025   
     6. B(C   5,C   0)                1.4200  0.024632 -0.0459    1.3741   
     7. B(H   6,C   2)                1.0901  0.001558 -0.0031    1.0870   
     8. B(H   7,C   3)                1.0863 -0.000315  0.0006    1.0869   
     9. B(H   8,C   4)                1.0869 -0.000740  0.0014    1.0883   
    10. B(H   9,C   5)                1.0841 -0.000609  0.0011    1.0852   
    11. A(C   1,C   0,C   5)          127.76 -0.004264    1.08    128.84   
    12. A(C   0,C   1,C   2)          122.56 -0.008576    1.70    124.26   
    13. A(C   1,C   2,H   6)          123.13 -0.009899    2.06    125.19   
    14. A(C   1,C   2,C   3)          115.32  0.015505   -3.12    112.20   
    15. A(C   3,C   2,H   6)          121.54 -0.005606    1.07    122.61   
    16. A(C   2,C   3,C   4)          120.63 -0.005570    0.96    121.59   
    17. A(C   4,C   3,H   7)          120.09  0.003108   -0.55    119.55   
    18. A(C   2,C   3,H   7)          119.28  0.002462   -0.42    118.86   
[...]
     15       0.000000   0.000000   0.000000   0.000000   0.000000   0.000000
     16       0.000000   0.000000   0.000000   0.000000   0.000000   0.000000
     17       0.000000   0.000000   0.000000   0.000000   0.000000   0.000000
     18       0.000000   0.000000   0.000000   0.000000   0.000000   0.000000
     19       0.000000   0.000000   0.000000   0.000000   0.000000   0.000000
     20       0.000000   0.000000   0.000000   0.000000   0.000000   0.000000
     21       0.000000   0.000000   0.000000   0.000000   0.000000   0.000000
     22       0.000000   0.000000   0.000000   0.000000   0.000000   0.000000
     23       0.000000   0.000000   0.000000   0.000000   0.000000   0.000000
     24       0.000000   0.000000   0.000000   0.000000   0.000000   0.000000
     25       0.000000   0.000000   0.000000   0.000000   0.000000   0.000000
     26       0.000000   0.000000   0.000000   0.000000   0.000000   0.000000
     27       0.000000   0.000000   0.000000   0.000000   0.000000   0.000000
     28       0.000000   0.000000   0.000000   0.000000   0.000000   0.000000
     29       0.000000   0.000000   0.000000   0.000000   0.000000   0.000000
                  6          7          8          9         10         11    
      0      -0.000001   0.549912  -0.000030   0.000002   0.292898  -0.000000
      1      -0.142198   0.000030   0.569463   0.097430   0.000000  -0.042775
      2      -0.000001   0.287407  -0.000014   0.000001  -0.003125  -0.000000
      3       0.000002  -0.544768   0.000030  -0.000003   0.292625   0.000000
      4      -0.142156  -0.000034  -0.569457  -0.097416  -0.000000  -0.042776
      5      -0.000001   0.297166  -0.000014   0.000001  -0.002066  -0.000000
      6      -0.000000  -0.084210   0.000004  -0.000001  -0.032895  -0.000000
      7       0.213503   0.000004   0.101384   0.183343   0.000001   0.078945
      8      -0.000000  -0.134680   0.000005  -0.000000   0.369649  -0.000001
      9       0.000000  -0.091924   0.000004  -0.000001  -0.241739   0.000001
     10      -0.117102   0.000016   0.241024  -0.237231  -0.000001   0.045848
     11       0.000000  -0.137449   0.000008  -0.000001   0.043560   0.000000
     12      -0.000000   0.089601  -0.000004   0.000001  -0.242501   0.000000
     13      -0.117091  -0.000018  -0.241097   0.237227   0.000000   0.045878
     14       0.000000  -0.139089   0.000008  -0.000001  -0.039184   0.000000
     15      -0.000001   0.081740  -0.000003   0.000001  -0.039546  -0.000000
     16       0.213507   0.000001  -0.101308  -0.183370   0.000000   0.078955
     17       0.000001  -0.135897   0.000005   0.000000  -0.369086   0.000000
     18      -0.000001   0.155814  -0.000008   0.000001  -0.095606   0.000001
     19       0.641333   0.000012   0.022061   0.113173  -0.000001  -0.411029
     20      -0.000000  -0.125057   0.000004   0.000000   0.370822  -0.000001
     21       0.000000  -0.112906   0.000005  -0.000001  -0.075118  -0.000001
     22      -0.095967   0.000027   0.326797  -0.622725  -0.000005  -0.566413
     23       0.000000  -0.098589   0.000006  -0.000000  -0.252712   0.000001
     24      -0.000001   0.111177  -0.000005   0.000002  -0.070571  -0.000002
     25      -0.095930  -0.000030  -0.326956   0.622778  -0.000003  -0.566361
     26       0.000000  -0.100780   0.000006  -0.000001   0.254008  -0.000001
     27      -0.000000  -0.158286   0.000008  -0.000001  -0.102375   0.000001
     28       0.641295   0.000001  -0.022009  -0.113035  -0.000002  -0.411259
     29       0.000001  -0.121912   0.000004   0.000001  -0.369111   0.000001
                 12         13         14         15         16         17    
      0      -0.117616   0.000003  -0.000000  -0.000001  -0.015800   0.238357
      1      -0.000003  -0.028621  -0.011140   0.000079   0.000000   0.000001
      2       0.041400  -0.000001  -0.000000   0.000000   0.001955   0.065089
      3       0.118358  -0.000003  -0.000000   0.000001  -0.015866   0.237274
      4       0.000003   0.028610  -0.011122  -0.000070   0.000000   0.000001
      5       0.039297  -0.000001   0.000000   0.000000  -0.001735  -0.069384
      6      -0.108915   0.000001   0.000001  -0.000000  -0.119199  -0.141576
      7       0.000004   0.056515   0.096086  -0.066389   0.000001  -0.000001
      8       0.190259  -0.000002  -0.000000  -0.000000   0.100141  -0.210034
      9      -0.344707   0.000005  -0.000001  -0.000001   0.176483  -0.041861
     10       0.000007   0.091090  -0.080738   0.086766  -0.000001  -0.000000
     11      -0.237986   0.000003  -0.000000  -0.000000   0.122316  -0.074753
     12       0.340307  -0.000005  -0.000001   0.000001   0.174111  -0.040367
     13      -0.000006  -0.091032  -0.080732  -0.086811  -0.000001  -0.000000
     14      -0.244206   0.000003   0.000000  -0.000000  -0.125568   0.075590
     15       0.112359  -0.000002   0.000001   0.000000  -0.120876  -0.137852
     16      -0.000004  -0.056543   0.096016   0.066414   0.000001  -0.000001
     17       0.188168  -0.000002   0.000000  -0.000000  -0.097800   0.212407
     18       0.161849  -0.000001   0.000003   0.000000  -0.562641  -0.539081
     19      -0.000047  -0.588840  -0.516565   0.433112  -0.000003  -0.000003
     20       0.183916  -0.000003  -0.000001  -0.000000   0.113620  -0.222932
     21      -0.446131   0.000006   0.000000  -0.000003   0.096587  -0.141132
     22      -0.000020  -0.375504   0.466452  -0.547931   0.000003   0.000002
     23      -0.043891   0.000000  -0.000001   0.000001   0.301187   0.083254
     24       0.445258  -0.000006   0.000001   0.000003   0.090773  -0.142081
     25       0.000014   0.375127   0.466427   0.548237   0.000004   0.000002
     26      -0.051903   0.000001   0.000001   0.000002  -0.303362  -0.079914
     27      -0.158427   0.000001   0.000003   0.000000  -0.564316  -0.535794
     28       0.000045   0.589008  -0.516036  -0.433288  -0.000004  -0.000003
     29       0.186747  -0.000003   0.000001   0.000000  -0.103212   0.232529
                 18         19         20         21         22         23    
      0      -0.031994   0.022355  -0.061912  -0.038076  -0.112255   0.045275
      1      -0.000000   0.000000  -0.000000  -0.000000  -0.000001   0.000000
      2       0.019102   0.009686   0.096589   0.037269   0.107487  -0.043563
      3       0.032179   0.022143   0.063685  -0.038753   0.114168  -0.045922
      4       0.000000   0.000000   0.000000  -0.000000   0.000001  -0.000000
      5       0.018565  -0.010094   0.095528  -0.036565   0.105536  -0.042865
      6       0.062494   0.023153   0.003182   0.188879  -0.155090   0.222730
      7       0.000000  -0.000000   0.000000   0.000000   0.000000   0.000000
      8      -0.100981  -0.013065  -0.073557  -0.047555  -0.133525  -0.029354
      9      -0.060876  -0.035931  -0.003388  -0.097700  -0.052360  -0.211456
     10      -0.000001  -0.000000  -0.000001   0.000000  -0.000001   0.000000
     11       0.052152   0.071215  -0.032138   0.131570   0.084743   0.119814
     12       0.061878  -0.037254   0.002889  -0.099969   0.053855   0.213696
     13       0.000001  -0.000000   0.000001   0.000000   0.000001  -0.000000
     14       0.050750  -0.070599  -0.032127  -0.129785   0.083685   0.115464
     15      -0.064206   0.023422  -0.004649   0.189528   0.152703  -0.223691
     16      -0.000000  -0.000000  -0.000000   0.000000  -0.000000  -0.000000
     17      -0.100014   0.012733  -0.073516   0.044144  -0.136295  -0.025184
     18       0.400083   0.214480  -0.646663  -0.647733   0.250397  -0.312269
     19      -0.000002   0.000000  -0.000003  -0.000001  -0.000003  -0.000001
     20      -0.111211  -0.015705  -0.075928  -0.047881  -0.153372  -0.038490
     21      -0.290667  -0.316043  -0.131442   0.026702   0.266556   0.121898
     22       0.000001   0.000001   0.000000  -0.000001  -0.000001  -0.000001
     23       0.470795   0.587938   0.197513  -0.103112  -0.516466  -0.522233
     24       0.298862  -0.326907   0.135055   0.028483  -0.275776  -0.130283
     25      -0.000001   0.000001  -0.000000  -0.000001   0.000002   0.000001
     26       0.464565  -0.582651   0.195149   0.102320  -0.511551  -0.518999
     27      -0.402022   0.215331   0.645355  -0.645590  -0.253356   0.313116
     28       0.000003   0.000000   0.000004  -0.000001   0.000004   0.000001
     29      -0.104130   0.011897  -0.087704   0.059663  -0.148770  -0.044067
                 24         25         26         27         28         29    
      0      -0.040120   0.072407   0.000168  -0.000155  -0.002421  -0.001718
      1      -0.000000   0.000000   0.000000   0.000000   0.000000  -0.000000
      2      -0.060025  -0.657912   0.000200   0.000436   0.001240   0.001000
      3      -0.039131   0.084046  -0.000165  -0.000166   0.002441  -0.001736
      4      -0.000000   0.000000  -0.000000   0.000000  -0.000000  -0.000000
      5       0.060665   0.656376   0.000204  -0.000433   0.001193  -0.000969
      6       0.086870  -0.026121   0.000924   0.001549   0.000066  -0.000220
      7       0.000000  -0.000000  -0.000000  -0.000000  -0.000000  -0.000000
      8       0.074425  -0.103014   0.011142   0.017733  -0.060561   0.059484
      9       0.015673  -0.045961  -0.051505  -0.050474  -0.012971   0.018229
     10      -0.000000   0.000000   0.000000   0.000000   0.000000  -0.000000
     11      -0.232248   0.115030  -0.026767  -0.030556  -0.003993   0.009091
     12       0.020307  -0.048075   0.051252  -0.049689   0.012870   0.018028
     13      -0.000000   0.000000  -0.000000   0.000000  -0.000000  -0.000000
     14       0.232167  -0.114217  -0.027840   0.031337  -0.004207  -0.009398
     15       0.085075  -0.024300  -0.000728   0.001225  -0.001167  -0.001301
     16       0.000000  -0.000000   0.000000  -0.000000  -0.000000  -0.000000
     17      -0.076050   0.103602   0.011201  -0.017662  -0.060589  -0.059454
     18      -0.443759  -0.121941  -0.002741  -0.004048   0.003641  -0.003671
     19       0.000000  -0.000001   0.000000   0.000000  -0.000001   0.000001
     20       0.085880  -0.124430  -0.142215  -0.218266   0.689921  -0.670649
     21      -0.319170   0.048908   0.606317   0.588517   0.125165  -0.189938
     22       0.000001  -0.000000  -0.000001  -0.000001  -0.000000   0.000000
     23       0.348022  -0.050642   0.326107   0.323298   0.065014  -0.102085
     24      -0.325657   0.049832  -0.603109   0.579908  -0.123628  -0.187652
     25       0.000001  -0.000000   0.000001  -0.000001   0.000000   0.000000
     26      -0.343288   0.049881   0.338578  -0.332354   0.067065   0.105264
     27      -0.444653  -0.119737   0.000161  -0.000086   0.008904   0.008511
     28       0.000000  -0.000001  -0.000000   0.000000   0.000001   0.000001
     29      -0.077900   0.126806  -0.142840   0.217151   0.690303   0.670404


-----------
IR SPECTRUM
-----------

 Mode   freq       eps      Int      T**2         TX        TY        TZ
       cm**-1   L/(mol*cm) km/mol    a.u.
----------------------------------------------------------------------------
  6:    395.15   0.000746    3.77  0.000589  ( 0.000001  0.024270  0.000001)
  7:    406.98   0.021818  110.26  0.016729  (-0.001129  0.000000 -0.129337)
  8:    437.83   0.000000    0.00  0.000000  (-0.000000  0.000011 -0.000005)
  9:    596.32   0.000000    0.00  0.000000  (-0.000000  0.000011  0.000012)
 10:    621.70   0.000097    0.49  0.000049  (-0.006968 -0.000000  0.000036)
 11:    754.50   0.011598   58.61  0.004797  ( 0.000001 -0.069260 -0.000001)
 12:    843.15   0.005597   28.29  0.002072  ( 0.000391 -0.000000  0.045513)
 13:    870.81   0.000000    0.00  0.000000  (-0.000000  0.000001  0.000003)
 14:    914.11   0.000019    0.10  0.000007  (-0.000001  0.002579 -0.000000)
 15:    962.53   0.000000    0.00  0.000000  (-0.000000  0.000003 -0.000005)
 16:   1007.51   0.000868    4.39  0.000269  (-0.016398 -0.000000  0.000161)
 17:   1086.02   0.004336   21.91  0.001246  (-0.035298 -0.000000  0.000326)
 18:   1116.03   0.000195    0.98  0.000054  ( 0.000075  0.000000  0.007375)
 19:   1171.53   0.000028    0.14  0.000007  ( 0.002706  0.000000 -0.000040)
 20:   1285.53   0.000000    0.00  0.000000  ( 0.000002  0.000000  0.000263)
 21:   1327.85   0.000142    0.72  0.000033  (-0.005785 -0.000000  0.000051)
 22:   1437.71   0.000841    4.25  0.000183  (-0.000139  0.000000 -0.013510)
 23:   1485.96   0.002592   13.10  0.000544  (-0.000199  0.000000 -0.023332)
 24:   1501.14   0.000096    0.49  0.000020  ( 0.004476  0.000000 -0.000062)
 25:   2023.54   0.000038    0.19  0.000006  (-0.002417 -0.000000 -0.000006)
 26:   3175.91   0.000311    1.57  0.000031  (-0.000019 -0.000000 -0.005532)
 27:   3191.65   0.001555    7.86  0.000152  (-0.012330  0.000000  0.000106)
 28:   3214.32   0.008301   41.95  0.000806  (-0.000253  0.000000 -0.028388)
 29:   3218.27   0.001071    5.41  0.000104  ( 0.010188  0.000000 -0.000075)

* The epsilon (eps) is given for a Dirac delta lineshape.
** The dipole moment derivative (T) already includes vibrational overlap.

The first frequency considered to be a vibration is 6
The total number of vibrations considered is 24


--------------------------
THERMOCHEMISTRY AT 298.15K
--------------------------

Temperature         ... 298.15 K
Pressure            ... 1.00 atm
Total Mass          ... 76.10 AMU

Throughout the following assumptions are being made:
  (1) The electronic state is orbitally nondegenerate
  (2) There are no thermally accessible electronically excited states
  (3) Hindered rotations indicated by low frequency modes are not
      treated as such but are treated as vibrations and this may
      cause some error
  (4) All equations used are the standard statistical mechanics
      equations for an ideal gas
  (5) All vibrations are strictly harmonic

freq.     395.15  E(vib)   ...       0.20 
freq.     406.98  E(vib)   ...       0.19 
freq.     437.83  E(vib)   ...       0.17 
freq.     596.32  E(vib)   ...       0.10 
freq.     621.70  E(vib)   ...       0.09 
freq.     754.50  E(vib)   ...       0.06 
freq.     843.15  E(vib)   ...       0.04 
freq.     870.81  E(vib)   ...       0.04 
freq.     914.11  E(vib)   ...       0.03 
freq.     962.53  E(vib)   ...       0.03 
freq.    1007.51  E(vib)   ...       0.02 
freq.    1086.02  E(vib)   ...       0.02 
freq.    1116.03  E(vib)   ...       0.01 
freq.    1171.53  E(vib)   ...       0.01 
freq.    1285.53  E(vib)   ...       0.01 
freq.    1327.85  E(vib)   ...       0.01 
freq.    1437.71  E(vib)   ...       0.00 
freq.    1485.96  E(vib)   ...       0.00 
freq.    1501.14  E(vib)   ...       0.00 
freq.    2023.54  E(vib)   ...       0.00 
freq.    3175.91  E(vib)   ...       0.00 
freq.    3191.65  E(vib)   ...       0.00 
freq.    3214.32  E(vib)   ...       0.00 
freq.    3218.27  E(vib)   ...       0.00 

------------
INNER ENERGY
------------

The inner energy is: U= E(el) + E(ZPE) + E(vib) + E(rot) + E(trans)
    E(el)   - is the total energy from the electronic structure calculation
              = E(kin-el) + E(nuc-el) + E(el-el) + E(nuc-nuc)
    E(ZPE)  - the the zero temperature vibrational energy from the frequency calculation
    E(vib)  - the the finite temperature correction to E(ZPE) due to population
              of excited vibrational states
    E(rot)  - is the rotational thermal energy
    E(trans)- is the translational thermal energy

Summary of contributions to the inner energy U:
Electronic energy                ...   -230.75766459 Eh
Zero point energy                ...      0.07528440 Eh      47.24 kcal/mol
Thermal vibrational correction   ...      0.00165821 Eh       1.04 kcal/mol
Thermal rotational correction    ...      0.00141627 Eh       0.89 kcal/mol
Thermal translational correction ...      0.00141627 Eh       0.89 kcal/mol
-----------------------------------------------------------------------
Total thermal energy                   -230.67788943 Eh


Summary of corrections to the electronic energy:
(perhaps to be used in another calculation)
Total thermal correction                  0.00449076 Eh       2.82 kcal/mol
Non-thermal (ZPE) correction              0.07528440 Eh      47.24 kcal/mol
-----------------------------------------------------------------------
Total correction                          0.07977515 Eh      50.06 kcal/mol


--------
ENTHALPY
--------

The enthalpy is H = U + kB*T
                kB is Boltzmann's constant
Total free energy                 ...   -230.67788943 Eh 
Thermal Enthalpy correction       ...      0.00094421 Eh       0.59 kcal/mol
-----------------------------------------------------------------------
Total Enthalpy                    ...   -230.67694523 Eh


Note: Rotational entropy computed according to Herzberg 
Infrared and Raman Spectra, Chapter V,1, Van Nostrand Reinhold, 1945 
Point Group:  Cs, Symmetry Number:   1  
Rotational constants in cm-1:     0.233426     0.189855     0.104699 

Vibrational entropy computed according to the QRRHO of S. Grimme
Chem.Eur.J. 2012 18 9955


-------
ENTROPY
-------

The entropy contributions are T*S = T*(S(el)+S(vib)+S(rot)+S(trans))
     S(el)   - electronic entropy
     S(vib)  - vibrational entropy
     S(rot)  - rotational entropy
     S(trans)- translational entropy
The entropies will be listed as multiplied by the temperature to get
units of energy

Electronic entropy                ...      0.00000000 Eh      0.00 kcal/mol
Vibrational entropy               ...      0.00228279 Eh      1.43 kcal/mol
Rotational entropy                ...      0.01204737 Eh      7.56 kcal/mol
Translational entropy             ...      0.01848439 Eh     11.60 kcal/mol
-----------------------------------------------------------------------
Final entropy term                ...      0.03281455 Eh     20.59 kcal/mol

In case the symmetry of your molecule has not been determined correctly
or in case you have a reason to use a different symmetry number we print 
out the resulting rotational entropy values for sn=1,12 :
 --------------------------------------------------------
|  sn= 1 | S(rot)=       0.01204737 Eh      7.56 kcal/mol|
|  sn= 2 | S(rot)=       0.01139292 Eh      7.15 kcal/mol|
|  sn= 3 | S(rot)=       0.01101009 Eh      6.91 kcal/mol|
|  sn= 4 | S(rot)=       0.01073846 Eh      6.74 kcal/mol|
|  sn= 5 | S(rot)=       0.01052777 Eh      6.61 kcal/mol|
|  sn= 6 | S(rot)=       0.01035563 Eh      6.50 kcal/mol|
|  sn= 7 | S(rot)=       0.01021008 Eh      6.41 kcal/mol|
|  sn= 8 | S(rot)=       0.01008401 Eh      6.33 kcal/mol|
|  sn= 9 | S(rot)=       0.00997280 Eh      6.26 kcal/mol|
|  sn=10 | S(rot)=       0.00987332 Eh      6.20 kcal/mol|
|  sn=11 | S(rot)=       0.00978333 Eh      6.14 kcal/mol|
|  sn=12 | S(rot)=       0.00970117 Eh      6.09 kcal/mol|
 --------------------------------------------------------


-------------------
GIBBS FREE ENERGY
-------------------

The Gibbs free energy is G = H - T*S

Total enthalpy                    ...   -230.67694523 Eh 
Total entropy correction          ...     -0.03281455 Eh    -20.59 kcal/mol
-----------------------------------------------------------------------
Final Gibbs free energy         ...   -230.70975978 Eh

For completeness - the Gibbs free energy minus the electronic energy
G-E(el)                           ...      0.04790481 Eh     30.06 kcal/mol


Timings for individual modules:

Sum of individual times         ...      514.422 sec (=   8.574 min)
GTO integral calculation        ...        2.521 sec (=   0.042 min)   0.5 %
SCF iterations                  ...      298.447 sec (=   4.974 min)  58.0 %
SCF Gradient evaluation         ...       81.676 sec (=   1.361 min)  15.9 %
Geometry relaxation             ...        0.211 sec (=   0.004 min)   0.0 %
Analytical frequency calculation...      131.566 sec (=   2.193 min)  25.6 %
                             ****ORCA TERMINATED NORMALLY****
TOTAL RUN TIME: 0 days 0 hours 8 minutes 34 seconds 778 msec
