
                                 *****************
                                 * O   R   C   A *
                                 *****************

                                            #,                                       
                                            ###                                      
                                            ####                                     
                                            #####                                    
                                            ######                                   
                                           ########,                                 
                                     ,,################,,,,,                         
                               ,,#################################,,                 
                          ,,##########################################,,             
                       ,#########################################, ''#####,          
                    ,#############################################,,   '####,        
                  ,##################################################,,,,####,       
                ,###########''''           ''''###############################       
              ,#####''   ,,,,##########,,,,          '''####'''          '####       
            ,##' ,,,,###########################,,,                        '##       
           ' ,,###''''                  '''############,,,                           
         ,,##''                                '''############,,,,        ,,,,,,###''
      ,#''                                            '''#######################'''  
     '                                                          ''''####''''         
             ,#######,   #######,   ,#######,      ##                                
            ,#'     '#,  ##    ##  ,#'     '#,    #''#        ######   ,####,        
            ##       ##  ##   ,#'  ##            #'  '#       #        #'  '#        
            ##       ##  #######   ##           ,######,      #####,   #    #        
            '#,     ,#'  ##    ##  '#,     ,#' ,#      #,         ##   #,  ,#        
             '#######'   ##     ##  '#######'  #'      '#     #####' # '####'        



                  #######################################################
                  #                        -***-                        #
                  #          Department of theory and spectroscopy      #
                  #    Directorship and core code : Frank Neese         #
                  #        Max Planck Institute fuer Kohlenforschung    #
                  #                Kaiser Wilhelm Platz 1               #
                  #                 D-45470 Muelheim/Ruhr               #
                  #                      Germany                        #
                  #                                                     #
                  #                  All rights reserved                #
                  #                        -***-                        #
                  #######################################################


                         Program Version 5.0.3 -  RELEASE  -


 With contributions from (in alphabetic order):
   Daniel Aravena         : Magnetic Suceptibility
   Michael Atanasov       : Ab Initio Ligand Field Theory (pilot matlab implementation)
   Alexander A. Auer      : GIAO ZORA, VPT2 properties, NMR spectrum
   Ute Becker             : Parallelization
   Giovanni Bistoni       : ED, misc. LED, open-shell LED, HFLD
   Martin Brehm           : Molecular dynamics
   Dmytro Bykov           : SCF Hessian
   Vijay G. Chilkuri      : MRCI spin determinant printing, contributions to CSF-ICE
   Dipayan Datta          : RHF DLPNO-CCSD density
   Achintya Kumar Dutta   : EOM-CC, STEOM-CC
   Dmitry Ganyushin       : Spin-Orbit,Spin-Spin,Magnetic field MRCI
   Miquel Garcia          : C-PCM and meta-GGA Hessian, CC/C-PCM, Gaussian charge scheme
   Yang Guo               : DLPNO-NEVPT2, F12-NEVPT2, CIM, IAO-localization
   Andreas Hansen         : Spin unrestricted coupled pair/coupled cluster methods
   Benjamin Helmich-Paris : MC-RPA, TRAH-SCF, COSX integrals
   Lee Huntington         : MR-EOM, pCC
   Robert Izsak           : Overlap fitted RIJCOSX, COSX-SCS-MP3, EOM
   Marcus Kettner         : VPT2
   Christian Kollmar      : KDIIS, OOCD, Brueckner-CCSD(T), CCSD density, CASPT2, CASPT2-K
   Simone Kossmann        : Meta GGA functionals, TD-DFT gradient, OOMP2, MP2 Hessian
   Martin Krupicka        : Initial AUTO-CI
   Lucas Lang             : DCDCAS
   Marvin Lechner         : AUTO-CI (C++ implementation), FIC-MRCC
   Dagmar Lenk            : GEPOL surface, SMD
   Dimitrios Liakos       : Extrapolation schemes; Compound Job, initial MDCI parallelization
   Dimitrios Manganas     : Further ROCIS development; embedding schemes
   Dimitrios Pantazis     : SARC Basis sets
   Anastasios Papadopoulos: AUTO-CI, single reference methods and gradients
   Taras Petrenko         : DFT Hessian,TD-DFT gradient, ASA, ECA, R-Raman, ABS, FL, XAS/XES, NRVS
   Peter Pinski           : DLPNO-MP2, DLPNO-MP2 Gradient
   Christoph Reimann      : Effective Core Potentials
   Marius Retegan         : Local ZFS, SOC
   Christoph Riplinger    : Optimizer, TS searches, QM/MM, DLPNO-CCSD(T), (RO)-DLPNO pert. Triples
   Tobias Risthaus        : Range-separated hybrids, TD-DFT gradient, RPA, STAB
   Michael Roemelt        : Original ROCIS implementation
   Masaaki Saitow         : Open-shell DLPNO-CCSD energy and density
   Barbara Sandhoefer     : DKH picture change effects
   Avijit Sen             : IP-ROCIS
   Kantharuban Sivalingam : CASSCF convergence, NEVPT2, FIC-MRCI
   Bernardo de Souza      : ESD, SOC TD-DFT
   Georgi Stoychev        : AutoAux, RI-MP2 NMR, DLPNO-MP2 response
   Willem Van den Heuvel  : Paramagnetic NMR
   Boris Wezisla          : Elementary symmetry handling
   Frank Wennmohs         : Technical directorship


 We gratefully acknowledge several colleagues who have allowed us to
 interface, adapt or use parts of their codes:
   Stefan Grimme, W. Hujo, H. Kruse, P. Pracht,  : VdW corrections, initial TS optimization,
                  C. Bannwarth, S. Ehlert          DFT functionals, gCP, sTDA/sTD-DF
   Ed Valeev, F. Pavosevic, A. Kumar             : LibInt (2-el integral package), F12 methods
   Garnet Chan, S. Sharma, J. Yang, R. Olivares  : DMRG
   Ulf Ekstrom                                   : XCFun DFT Library
   Mihaly Kallay                                 : mrcc  (arbitrary order and MRCC methods)
   Jiri Pittner, Ondrej Demel                    : Mk-CCSD
   Frank Weinhold                                : gennbo (NPA and NBO analysis)
   Christopher J. Cramer and Donald G. Truhlar   : smd solvation model
   Lars Goerigk                                  : TD-DFT with DH, B97 family of functionals
   V. Asgeirsson, H. Jonsson                     : NEB implementation
   FAccTs GmbH                                   : IRC, NEB, NEB-TS, DLPNO-Multilevel, CI-OPT
                                                   MM, QMMM, 2- and 3-layer-ONIOM, Crystal-QMMM,
                                                   LR-CPCM, SF, NACMEs, symmetry and pop. for TD-DFT,
                                                   nearIR, NL-DFT gradient (VV10), updates on ESD,
                                                   ML-optimized integration grids
   S Lehtola, MJT Oliveira, MAL Marques          : LibXC Library
   Liviu Ungur et al                             : ANISO software


 Your calculation uses the libint2 library for the computation of 2-el integrals
 For citations please refer to: http://libint.valeyev.net

 Your ORCA version has been built with support for libXC version: 5.1.0
 For citations please refer to: https://tddft.org/programs/libxc/

 This ORCA versions uses:
   CBLAS   interface :  Fast vector & matrix operations
   LAPACKE interface :  Fast linear algebra routines
   SCALAPACK package :  Parallel linear algebra routines
   Shared memory     :  Shared parallel matrices
   BLAS/LAPACK       :  OpenBLAS 0.3.15  USE64BITINT DYNAMIC_ARCH NO_AFFINITY Haswell SINGLE_THREADED
        Core in use  :  Haswell
   Copyright (c) 2011-2014, The OpenBLAS Project


================================================================================

----- Orbital basis set information -----
Your calculation utilizes the basis: 6-31G*
   H-He, Li-Ne : W. J. Hehre, R. Ditchfield and J.A. Pople, J. Chem. Phys. 56, 2257 (1972).
                 Note: He and Ne are unpublished basis sets taken from the Gaussian program.
                 Note: Li and B from J. D. Dill and J. A. Pople, J. Chem. Phys. 62, 2921 (1975).
   Na - Ar     : M. M. Francl, W. J. Pietro, W. J. Hehre, J. S. Binkley, M. S. Gordon, 
                 D. J. DeFrees and J. A. Pople, J. Chem. Phys. 77, 3654 (1982).
   K - Zn      : V. A. Rassolov, J. A. Pople, M. A. Ratner, and T. L. Windus, J. Chem. Phys. 109, 1223 (1998).

================================================================================
                                        WARNINGS
                       Please study these warnings very carefully!
================================================================================


WARNING: Geometry Optimization
  ===> : Switching off AutoStart
         For restart on a previous wavefunction, please use MOREAD

WARNING: Post HF methods need fully converged wavefunctions
  ===> : Setting SCFConvForced true
         You can overwrite this default with %scf ConvForced false 


INFO   : the flag for use of the SHARK integral package has been found!

================================================================================
                                       INPUT FILE
================================================================================
NAME = benzyne_mp2
|  1>  ! MP2 6-31g* OPT ANFREQ NoFrozenCore
|  2> 
|  3> *xyz 0 1
|  4>  
|  5>  C     0.000000     0.000000     0.000000
|  6>  C     0.000000     0.000000     1.200000
|  7>  C     1.212436     0.000000     1.900000
|  8>  C     2.424871     0.000000     1.200000
|  9>  C     2.424871     0.000000    -0.200000
| 10>  C     1.212436     0.000000    -0.900000
| 11>  H     1.212436     0.000000     2.989000
| 12>  H     3.367973     0.000000     1.744500
| 13>  H     3.367973     0.000000    -0.744500
| 14>  H     1.212436     0.000000    -1.989000
| 15> *
| 16> 
| 17>                          ****END OF INPUT****
================================================================================

                       *****************************
                       * Geometry Optimization Run *
                       *****************************

Geometry optimization settings:
Update method            Update   .... BFGS
Choice of coordinates    CoordSys .... Z-matrix Internals
Initial Hessian          InHess   .... Almoef's Model

Convergence Tolerances:
Energy Change            TolE     ....  5.0000e-06 Eh
Max. Gradient            TolMAXG  ....  3.0000e-04 Eh/bohr
RMS Gradient             TolRMSG  ....  1.0000e-04 Eh/bohr
Max. Displacement        TolMAXD  ....  4.0000e-03 bohr
RMS Displacement         TolRMSD  ....  2.0000e-03 bohr
Strict Convergence                ....  False
------------------------------------------------------------------------------
                        ORCA OPTIMIZATION COORDINATE SETUP
------------------------------------------------------------------------------

The optimization will be done in new redundant internal coordinates
Making redundant internal coordinates   ...  (new redundants) done
Evaluating the initial hessian          ...  (Almloef) done
Evaluating the coordinates              ...  done
Calculating the B-matrix                .... done
Calculating the G-matrix                .... done
Diagonalizing the G-matrix              .... done
The first mode is                       ....   17
The number of degrees of freedom        ....   24

    -----------------------------------------------------------------
                    Redundant Internal Coordinates


    -----------------------------------------------------------------
         Definition                    Initial Value    Approx d2E/dq
    -----------------------------------------------------------------
      1. B(C   1,C   0)                  1.2000         1.255658   
      2. B(C   2,C   1)                  1.4000         0.602259   
      3. B(C   3,C   2)                  1.4000         0.602261   
      4. B(C   4,C   3)                  1.4000         0.602260   
      5. B(C   5,C   4)                  1.4000         0.602261   
      6. B(C   5,C   0)                  1.5100         0.402104   
      7. B(H   6,C   2)                  1.0890         0.361425   
      8. B(H   7,C   3)                  1.0890         0.361425   
      9. B(H   8,C   4)                  1.0890         0.361425   
     10. B(H   9,C   5)                  1.0890         0.361425   
     11. A(C   1,C   0,C   5)          126.5868         0.456034   
     12. A(C   0,C   1,C   2)          120.0000         0.491176   
     13. A(C   1,C   2,H   6)          120.0000         0.351399   
     14. A(C   1,C   2,C   3)          120.0000         0.429561   
     15. A(C   3,C   2,H   6)          120.0000         0.351399   
     16. A(C   2,C   3,C   4)          120.0000         0.429561   
     17. A(C   4,C   3,H   7)          120.0000         0.351399   
     18. A(C   2,C   3,H   7)          120.0000         0.351399   
     19. A(C   5,C   4,H   8)          120.0000         0.351399   
     20. A(C   3,C   4,H   8)          120.0000         0.351399   
     21. A(C   3,C   4,C   5)          120.0000         0.429561   
     22. A(C   4,C   5,H   9)          120.0000         0.351399   
     23. A(C   0,C   5,H   9)          126.5868         0.328470   
     24. A(C   0,C   5,C   4)          113.4132         0.399803   
     25. D(C   2,C   1,C   0,C   5)      0.0000         0.103022   
     26. D(H   6,C   2,C   1,C   0)    180.0000         0.022694   
     27. D(C   3,C   2,C   1,C   0)      0.0000         0.022694   
     28. D(H   7,C   3,C   2,C   1)    180.0000         0.025015   
     29. D(C   4,C   3,C   2,H   6)    180.0000         0.025015   
     30. D(H   7,C   3,C   2,H   6)      0.0000         0.025015   
     31. D(C   4,C   3,C   2,C   1)      0.0000         0.025015   
     32. D(H   8,C   4,C   3,C   2)    180.0000         0.025015   
     33. D(C   5,C   4,C   3,H   7)    180.0000         0.025015   
     34. D(H   8,C   4,C   3,H   7)      0.0000         0.025015   
     35. D(C   5,C   4,C   3,C   2)      0.0000         0.025015   
     36. D(C   0,C   5,C   4,C   3)      0.0000         0.025015   
     37. D(H   9,C   5,C   0,C   1)    180.0000         0.010163   
     38. D(C   0,C   5,C   4,H   8)    180.0000         0.025015   
     39. D(C   4,C   5,C   0,C   1)      0.0000         0.010163   
     40. D(H   9,C   5,C   4,H   8)      0.0000         0.025015   
     41. D(H   9,C   5,C   4,C   3)    180.0000         0.025015   
    -----------------------------------------------------------------

Number of atoms                         .... 10
Number of degrees of freedom            .... 41

         *************************************************************
         *                GEOMETRY OPTIMIZATION CYCLE   1            *
         *************************************************************
---------------------------------
CARTESIAN COORDINATES (ANGSTROEM)
---------------------------------
  C      0.000000    0.000000    0.000000
  C      0.000000    0.000000    1.200000
  C      1.212436    0.000000    1.900000
  C      2.424871    0.000000    1.200000
  C      2.424871    0.000000   -0.200000
  C      1.212436    0.000000   -0.900000
  H      1.212436    0.000000    2.989000
  H      3.367973    0.000000    1.744500
  H      3.367973    0.000000   -0.744500
  H      1.212436    0.000000   -1.989000

----------------------------
CARTESIAN COORDINATES (A.U.)
----------------------------
  NO LB      ZA    FRAG     MASS         X           Y           Z
   0 C     6.0000    0    12.011    0.000000    0.000000    0.000000
   1 C     6.0000    0    12.011    0.000000    0.000000    2.267671
   2 C     6.0000    0    12.011    2.291172    0.000000    3.590480
   3 C     6.0000    0    12.011    4.582342    0.000000    2.267671
   4 C     6.0000    0    12.011    4.582342    0.000000   -0.377945
   5 C     6.0000    0    12.011    2.291172    0.000000   -1.700754
   6 H     1.0000    0     1.008    2.291172    0.000000    5.648391
   7 H     1.0000    0     1.008    6.364547    0.000000    3.296627
   8 H     1.0000    0     1.008    6.364547    0.000000   -1.406901
   9 H     1.0000    0     1.008    2.291172    0.000000   -3.758665

--------------------------------
INTERNAL COORDINATES (ANGSTROEM)
--------------------------------
 C      0   0   0     0.000000000000     0.00000000     0.00000000
 C      1   0   0     1.200000000000     0.00000000     0.00000000
 C      2   1   0     1.400000376463   119.99999110     0.00000000
 C      3   2   1     1.399999510437   119.99999733     0.00000000
 C      4   3   2     1.400000000000   120.00001157     0.00000000
 C      5   4   3     1.399999510437   120.00001157     0.00000000
 H      3   2   1     1.089000000000   119.99999110   180.00000000
 H      4   3   2     1.089000290360   119.99999725   180.00000000
 H      5   4   3     1.089000290360   119.99999118   180.00000085
 H      6   5   4     1.089000000000   120.00001157   180.00000000

---------------------------
INTERNAL COORDINATES (A.U.)
---------------------------
 C      0   0   0     0.000000000000     0.00000000     0.00000000
 C      1   0   0     2.267671360706     0.00000000     0.00000000
 C      2   1   0     2.645617298901   119.99999110     0.00000000
 C      3   2   1     2.645615662351   119.99999733     0.00000000
 C      4   3   2     2.645616587490   120.00001157     0.00000000
 C      5   4   3     2.645615662351   120.00001157     0.00000000
 H      3   2   1     2.057911759840   119.99999110   180.00000000
 H      4   3   2     2.057912308541   119.99999725   180.00000000
 H      5   4   3     2.057912308541   119.99999118   180.00000085
 H      6   5   4     2.057911759840   120.00001157   180.00000000

---------------------
BASIS SET INFORMATION
---------------------
There are 2 groups of distinct atoms

 Group   1 Type C   : 10s4p1d contracted to 3s2p1d pattern {631/31/1}
 Group   2 Type H   : 4s contracted to 2s pattern {31}

Atom   0C    basis set group =>   1
Atom   1C    basis set group =>   1
Atom   2C    basis set group =>   1
Atom   3C    basis set group =>   1
Atom   4C    basis set group =>   1
Atom   5C    basis set group =>   1
Atom   6H    basis set group =>   2
Atom   7H    basis set group =>   2
Atom   8H    basis set group =>   2
Atom   9H    basis set group =>   2
------------------------------------------------------------------------------
                           ORCA GTO INTEGRAL CALCULATION
------------------------------------------------------------------------------
------------------------------------------------------------------------------
                   ___                                                        
                  /   \      - P O W E R E D   B Y -                         
                 /     \                                                     
                 |  |  |   _    _      __       _____    __    __             
                 |  |  |  | |  | |    /  \     |  _  \  |  |  /  |          
                  \  \/   | |  | |   /    \    | | | |  |  | /  /          
                 / \  \   | |__| |  /  /\  \   | |_| |  |  |/  /          
                |  |  |   |  __  | /  /__\  \  |    /   |      \           
                |  |  |   | |  | | |   __   |  |    \   |  |\   \          
                \     /   | |  | | |  |  |  |  | |\  \  |  | \   \       
                 \___/    |_|  |_| |__|  |__|  |_| \__\ |__|  \__/        
                                                                              
                      - O R C A' S   B I G   F R I E N D -                    
                                      &                                       
                       - I N T E G R A L  F E E D E R -                       
                                                                              
 v1 FN, 2020, v2 2021                                                         
------------------------------------------------------------------------------


Reading SHARK input file benzyne_mp2.SHARKINP.tmp ... ok
----------------------
SHARK INTEGRAL PACKAGE
----------------------

Number of atoms                             ...     10
Number of basis functions                   ...     92
Number of shells                            ...     44
Maximum angular momentum                    ...      2
Integral batch strategy                     ... SHARK/LIBINT Hybrid
RI-J (if used) integral strategy            ... SPLIT-RIJ (Revised 2003 algorithm where possible)
Printlevel                                  ...      1
Contraction scheme used                     ... SEGMENTED contraction
Coulomb Range Separation                    ... NOT USED
Exchange Range Separation                   ... NOT USED
Finite Nucleus Model                        ... NOT USED
Auxiliary Coulomb fitting basis             ... NOT available
Auxiliary J/K fitting basis                 ... NOT available
Auxiliary Correlation fitting basis         ... NOT available
Auxiliary 'external' fitting basis          ... NOT available
Integral threshold                          ...     2.500000e-11
Primitive cut-off                           ...     2.500000e-12
Primitive pair pre-selection threshold      ...     2.500000e-12

Calculating pre-screening integrals         ... done (  0.1 sec) Dimension = 44
Organizing shell pair data                  ... done (  0.0 sec)
Shell pair information
Total number of shell pairs                 ...       990
Shell pairs after pre-screening             ...       976
Total number of primitive shell pairs       ...      5809
Primitive shell pairs kept                  ...      4224
          la=0 lb=0:    337 shell pairs
          la=1 lb=0:    312 shell pairs
          la=1 lb=1:     78 shell pairs
          la=2 lb=0:    156 shell pairs
          la=2 lb=1:     72 shell pairs
          la=2 lb=2:     21 shell pairs

Calculating one electron integrals          ... done (  0.0 sec)
Calculating Nuclear repulsion               ... done (  0.0 sec) ENN=    186.351047638348 Eh

SHARK setup successfully completed in   0.2 seconds

Maximum memory used throughout the entire GTOINT-calculation: 10.2 MB
-------------------------------------------------------------------------------
                                 ORCA SCF
-------------------------------------------------------------------------------

------------
SCF SETTINGS
------------
Hamiltonian:
 Ab initio Hamiltonian  Method          .... Hartree-Fock(GTOs)


General Settings:
 Integral files         IntName         .... benzyne_mp2
 Hartree-Fock type      HFTyp           .... RHF
 Total Charge           Charge          ....    0
 Multiplicity           Mult            ....    1
 Number of Electrons    NEL             ....   40
 Basis Dimension        Dim             ....   92
 Nuclear Repulsion      ENuc            ....    186.3510476383 Eh

Convergence Acceleration:
 DIIS                   CNVDIIS         .... on
   Start iteration      DIISMaxIt       ....    12
   Startup error        DIISStart       ....  0.200000
   # of expansion vecs  DIISMaxEq       ....     5
   Bias factor          DIISBfac        ....   1.050
   Max. coefficient     DIISMaxC        ....  10.000
 Trust-Rad. Augm. Hess. CNVTRAH         .... auto
   Auto Start mean grad. ratio tolernc. ....  1.125000
   Auto Start start iteration           ....    20
   Auto Start num. interpolation iter.  ....    10
   Max. Number of Micro iterations      ....    16
   Max. Number of Macro iterations      .... Maxiter - #DIIS iter
   Number of Davidson start vectors     ....     2
   Converg. threshold I  (grad. norm)   ....   1.000e-05
   Converg. threshold II (energy diff.) ....   1.000e-08
   Grad. Scal. Fac. for Micro threshold ....   0.100
   Minimum threshold for Micro iter.    ....   0.010
   NR start threshold (gradient norm)   ....   0.001
   Initial trust radius                 ....   0.400
   Minimum AH scaling param. (alpha)    ....   1.000
   Maximum AH scaling param. (alpha)    .... 1000.000
   Orbital update algorithm             .... Taylor
   White noise on init. David. guess    .... on
   Maximum white noise                  ....   0.010
   Quad. conv. algorithm                .... NR
 SOSCF                  CNVSOSCF        .... on
   Start iteration      SOSCFMaxIt      ....   150
   Startup grad/error   SOSCFStart      ....  0.003300
 Level Shifting         CNVShift        .... on
   Level shift para.    LevelShift      ....    0.2500
   Turn off err/grad.   ShiftErr        ....    0.0010
 Zerner damping         CNVZerner       .... off
 Static damping         CNVDamp         .... on
   Fraction old density DampFac         ....    0.7000
   Max. Damping (<1)    DampMax         ....    0.9800
   Min. Damping (>=0)   DampMin         ....    0.0000
   Turn off err/grad.   DampErr         ....    0.1000
 Fernandez-Rico         CNVRico         .... off

SCF Procedure:
 Maximum # iterations   MaxIter         ....   125
 SCF integral mode      SCFMode         .... Direct
   Integral package                     .... SHARK and LIBINT hybrid scheme
 Reset frequency        DirectResetFreq ....    20
 Integral Threshold     Thresh          ....  2.500e-11 Eh
 Primitive CutOff       TCut            ....  2.500e-12 Eh

Convergence Tolerance:
 Convergence Check Mode ConvCheckMode   .... Total+1el-Energy
 Convergence forced     ConvForced      .... 1
 Energy Change          TolE            ....  1.000e-08 Eh
 1-El. energy change                    ....  1.000e-05 Eh
 Orbital Gradient       TolG            ....  1.000e-05
 Orbital Rotation angle TolX            ....  1.000e-05
 DIIS Error             TolErr          ....  5.000e-07


Diagonalization of the overlap matrix:
Smallest eigenvalue                        ... 8.047e-04
Time for diagonalization                   ...    0.002 sec
Threshold for overlap eigenvalues          ... 1.000e-08
Number of eigenvalues below threshold      ... 0
Time for construction of square roots      ...    0.000 sec
Total time needed                          ...    0.003 sec

Time for model grid setup =    0.127 sec

------------------------------
INITIAL GUESS: MODEL POTENTIAL
------------------------------
Loading Hartree-Fock densities                     ... done
Calculating cut-offs                               ... done
Initializing the effective Hamiltonian             ... done
Setting up the integral package (SHARK)            ... done
Starting the Coulomb interaction                   ... done (   0.1 sec)
Reading the grid                                   ... done
Mapping shells                                     ... done
Starting the XC term evaluation                    ... done (   0.1 sec)
Transforming the Hamiltonian                       ... done (   0.0 sec)
Diagonalizing the Hamiltonian                      ... done (   0.0 sec)
Back transforming the eigenvectors                 ... done (   0.0 sec)
Now organizing SCF variables                       ... done
                      ------------------
                      INITIAL GUESS DONE (   0.3 sec)
                      ------------------
--------------
SCF ITERATIONS
--------------
ITER       Energy         Delta-E        Max-DP      RMS-DP      [F,P]     Damp
               ***  Starting incremental Fock matrix formation  ***
  0   -229.1613788155   0.000000000000 0.03707480  0.00260231  0.1462707 0.7000
  1   -229.2298981504  -0.068519334935 0.02993816  0.00209601  0.1017076 0.7000
                               ***Turning on DIIS***
  2   -229.2730957340  -0.043197583587 0.06688521  0.00477122  0.0659629 0.0000
  3   -228.9771363974   0.295959336551 0.01317727  0.00095614  0.0229913 0.0000
  4   -229.3620321720  -0.384895774530 0.00485973  0.00033525  0.0047207 0.0000
                      *** Initiating the SOSCF procedure ***
                           *** Shutting down DIIS ***
                      *** Re-Reading the Fockian *** 
                      *** Removing any level shift *** 
ITER      Energy       Delta-E        Grad      Rot      Max-DP    RMS-DP
  5   -229.36861685  -0.0065846799  0.001753  0.001753  0.002286  0.000144
               *** Restarting incremental Fock matrix formation ***
  6   -229.36354803   0.0050688215  0.000638  0.001309  0.001275  0.000080
  7   -229.36356539  -0.0000173562  0.000748  0.002774  0.001541  0.000095
  8   -229.36357359  -0.0000082034  0.000191  0.000240  0.000361  0.000026
  9   -229.36357480  -0.0000012088  0.000082  0.000297  0.000273  0.000016
 10   -229.36357511  -0.0000003105  0.000059  0.000203  0.000128  0.000005
 11   -229.36357516  -0.0000000481  0.000022  0.000094  0.000057  0.000003
 12   -229.36357517  -0.0000000109  0.000010  0.000028  0.000032  0.000002
                 **** Energy Check signals convergence ****
              ***Rediagonalizing the Fockian in SOSCF/NRSCF***

               *****************************************************
               *                     SUCCESS                       *
               *           SCF CONVERGED AFTER  13 CYCLES          *
               *****************************************************


----------------
TOTAL SCF ENERGY
----------------

Total Energy       :         -229.36357517 Eh           -6241.30018 eV

Components:
Nuclear Repulsion  :          186.35104764 Eh            5070.86980 eV
Electronic Energy  :         -415.71462281 Eh          -11312.16999 eV
One Electron Energy:         -677.49631777 Eh          -18435.61205 eV
Two Electron Energy:          261.78169496 Eh            7123.44207 eV

Virial components:
Potential Energy   :         -458.48813644 Eh          -12476.09646 eV
Kinetic Energy     :          229.12456127 Eh            6234.79628 eV
Virial Ratio       :            2.00104316


---------------
SCF CONVERGENCE
---------------

  Last Energy change         ...   -2.7197e-09  Tolerance :   1.0000e-08
  Last MAX-Density change    ...    1.3088e-05  Tolerance :   1.0000e-07
  Last RMS-Density change    ...    6.5519e-07  Tolerance :   5.0000e-09
  Last Orbital Gradient      ...    4.6647e-06  Tolerance :   1.0000e-05
  Last Orbital Rotation      ...    1.6371e-05  Tolerance :   1.0000e-05

             **** THE GBW FILE WAS UPDATED (benzyne_mp2.gbw) ****
             **** DENSITY benzyne_mp2.scfp WAS UPDATED ****
             **** ENERGY FILE WAS UPDATED (benzyne_mp2.en.tmp) ****
             **** THE GBW FILE WAS UPDATED (benzyne_mp2.gbw) ****
             **** DENSITY benzyne_mp2.scfp WAS UPDATED ****
----------------
ORBITAL ENERGIES
----------------

  NO   OCC          E(Eh)            E(eV) 
   0   2.0000     -11.285228      -307.0867 
   1   2.0000     -11.269461      -306.6576 
   2   2.0000     -11.254615      -306.2536 
   3   2.0000     -11.253534      -306.2242 
   4   2.0000     -11.247027      -306.0472 
   5   2.0000     -11.227255      -305.5091 
   6   2.0000      -1.161589       -31.6084 
   7   2.0000      -1.033050       -28.1107 
   8   2.0000      -1.001379       -27.2489 
   9   2.0000      -0.841020       -22.8853 
  10   2.0000      -0.778975       -21.1970 
  11   2.0000      -0.687942       -18.7198 
  12   2.0000      -0.621937       -16.9238 
  13   2.0000      -0.615585       -16.7509 
  14   2.0000      -0.556583       -15.1454 
  15   2.0000      -0.535979       -14.5847 
  16   2.0000      -0.516190       -14.0462 
  17   2.0000      -0.379427       -10.3247 
  18   2.0000      -0.365929        -9.9574 
  19   2.0000      -0.333757        -9.0820 
  20   0.0000       0.070930         1.9301 
  21   0.0000       0.115172         3.1340 
  22   0.0000       0.169788         4.6202 
  23   0.0000       0.242937         6.6106 
  24   0.0000       0.287895         7.8340 
  25   0.0000       0.308231         8.3874 
  26   0.0000       0.323650         8.8070 
  27   0.0000       0.377200        10.2641 
  28   0.0000       0.432043        11.7565 
  29   0.0000       0.452320        12.3083 
  30   0.0000       0.496389        13.5074 
  31   0.0000       0.549949        14.9649 
  32   0.0000       0.653023        17.7697 
  33   0.0000       0.667480        18.1631 
  34   0.0000       0.717856        19.5338 
  35   0.0000       0.734840        19.9960 
  36   0.0000       0.761218        20.7138 
  37   0.0000       0.787206        21.4210 
  38   0.0000       0.806676        21.9508 
  39   0.0000       0.821528        22.3549 
  40   0.0000       0.823122        22.3983 
  41   0.0000       0.838286        22.8109 
  42   0.0000       0.843397        22.9500 
  43   0.0000       0.889386        24.2014 
  44   0.0000       0.917536        24.9674 
  45   0.0000       0.917654        24.9706 
  46   0.0000       0.991597        26.9827 
  47   0.0000       0.998841        27.1799 
  48   0.0000       1.002727        27.2856 
  49   0.0000       1.101259        29.9668 
  50   0.0000       1.104202        30.0469 
  51   0.0000       1.129581        30.7375 
  52   0.0000       1.164558        31.6892 
  53   0.0000       1.180478        32.1224 
  54   0.0000       1.195878        32.5415 
  55   0.0000       1.276631        34.7389 
  56   0.0000       1.297271        35.3005 
  57   0.0000       1.376240        37.4494 
  58   0.0000       1.424765        38.7698 
  59   0.0000       1.513118        41.1740 
  60   0.0000       1.563015        42.5318 
  61   0.0000       1.592325        43.3294 
  62   0.0000       1.646744        44.8102 
  63   0.0000       1.744641        47.4741 
  64   0.0000       1.767428        48.0942 
  65   0.0000       1.798793        48.9476 
  66   0.0000       1.845761        50.2257 
  67   0.0000       1.902550        51.7710 
  68   0.0000       1.984586        54.0033 
  69   0.0000       2.003906        54.5291 
  70   0.0000       2.129152        57.9372 
  71   0.0000       2.202664        59.9375 
  72   0.0000       2.262800        61.5739 
  73   0.0000       2.352978        64.0278 
  74   0.0000       2.397425        65.2373 
  75   0.0000       2.398985        65.2797 
  76   0.0000       2.456087        66.8335 
  77   0.0000       2.490691        67.7751 
  78   0.0000       2.561181        69.6933 
  79   0.0000       2.566455        69.8368 
  80   0.0000       2.663824        72.4863 
  81   0.0000       2.736115        74.4535 
  82   0.0000       2.786044        75.8121 
  83   0.0000       2.832598        77.0789 
  84   0.0000       2.970055        80.8193 
  85   0.0000       3.014328        82.0240 
  86   0.0000       3.039084        82.6977 
  87   0.0000       3.048739        82.9604 
  88   0.0000       3.132628        85.2431 
  89   0.0000       3.204100        87.1880 
  90   0.0000       3.477140        94.6178 
  91   0.0000       3.757461       102.2457 

                    ********************************
                    * MULLIKEN POPULATION ANALYSIS *
                    ********************************

-----------------------
MULLIKEN ATOMIC CHARGES
-----------------------
   0 C :   -0.019183
   1 C :   -0.031438
   2 C :   -0.206560
   3 C :   -0.198046
   4 C :   -0.185949
   5 C :   -0.214669
   6 H :    0.199445
   7 H :    0.215550
   8 H :    0.220263
   9 H :    0.220587
Sum of atomic charges:   -0.0000000

--------------------------------
MULLIKEN REDUCED ORBITAL CHARGES
--------------------------------
  0 C s       :     3.182135  s :     3.182135
      pz      :     0.971132  p :     2.798074
      px      :     0.844958
      py      :     0.981985
      dz2     :     0.009493  d :     0.038974
      dxz     :     0.014065
      dyz     :     0.010498
      dx2y2   :     0.002447
      dxy     :     0.002472
  1 C s       :     3.143042  s :     3.143042
      pz      :     0.974493  p :     2.844875
      px      :     0.935353
      py      :     0.935030
      dz2     :     0.011463  d :     0.043521
      dxz     :     0.013688
      dyz     :     0.010468
      dx2y2   :     0.003814
      dxy     :     0.004088
  2 C s       :     3.196313  s :     3.196313
      pz      :     1.075042  p :     2.957762
      px      :     0.891531
      py      :     0.991189
      dz2     :     0.019564  d :     0.052486
      dxz     :     0.014242
      dyz     :     0.003071
      dx2y2   :     0.008171
      dxy     :     0.007438
  3 C s       :     3.174671  s :     3.174671
      pz      :     0.942970  p :     2.977986
      px      :     1.030188
      py      :     1.004828
      dz2     :     0.012123  d :     0.045389
      dxz     :     0.015910
      dyz     :     0.005766
      dx2y2   :     0.007461
      dxy     :     0.004129
  4 C s       :     3.177000  s :     3.177000
      pz      :     0.959807  p :     2.962923
      px      :     1.021341
      py      :     0.981775
      dz2     :     0.011776  d :     0.046026
      dxz     :     0.016019
      dyz     :     0.006300
      dx2y2   :     0.007407
      dxy     :     0.004524
  5 C s       :     3.215217  s :     3.215217
      pz      :     1.062192  p :     2.953510
      px      :     0.853965
      py      :     1.037353
      dz2     :     0.016348  d :     0.045943
      dxz     :     0.013621
      dyz     :     0.002855
      dx2y2   :     0.006886
      dxy     :     0.006233
  6 H s       :     0.800555  s :     0.800555
  7 H s       :     0.784450  s :     0.784450
  8 H s       :     0.779737  s :     0.779737
  9 H s       :     0.779413  s :     0.779413


                     *******************************
                     * LOEWDIN POPULATION ANALYSIS *
                     *******************************

----------------------
LOEWDIN ATOMIC CHARGES
----------------------
   0 C :   -0.008278
   1 C :   -0.084156
   2 C :   -0.097020
   3 C :   -0.144774
   4 C :   -0.129538
   5 C :   -0.117623
   6 H :    0.135871
   7 H :    0.146785
   8 H :    0.149427
   9 H :    0.149306

-------------------------------
LOEWDIN REDUCED ORBITAL CHARGES
-------------------------------
  0 C s       :     2.970507  s :     2.970507
      pz      :     1.123990  p :     2.961028
      px      :     0.864272
      py      :     0.972766
      dz2     :     0.024643  d :     0.076743
      dxz     :     0.024110
      dyz     :     0.019240
      dx2y2   :     0.004714
      dxy     :     0.004035
  1 C s       :     2.953085  s :     2.953085
      pz      :     1.144935  p :     3.042843
      px      :     0.964348
      py      :     0.933560
      dz2     :     0.031051  d :     0.088228
      dxz     :     0.022316
      dyz     :     0.019873
      dx2y2   :     0.008098
      dxy     :     0.006890
  2 C s       :     2.915176  s :     2.915176
      pz      :     1.077415  p :     3.078074
      px      :     1.022505
      py      :     0.978154
      dz2     :     0.036552  d :     0.103770
      dxz     :     0.031651
      dyz     :     0.003911
      dx2y2   :     0.017320
      dxy     :     0.014336
  3 C s       :     2.921382  s :     2.921382
      pz      :     1.063335  p :     3.131917
      px      :     1.072767
      py      :     0.995815
      dz2     :     0.026681  d :     0.091475
      dxz     :     0.034152
      dyz     :     0.011539
      dx2y2   :     0.012672
      dxy     :     0.006432
  4 C s       :     2.921827  s :     2.921827
      pz      :     1.071749  p :     3.115406
      px      :     1.070986
      py      :     0.972670
      dz2     :     0.025499  d :     0.092306
      dxz     :     0.034397
      dyz     :     0.012553
      dx2y2   :     0.012708
      dxy     :     0.007149
  5 C s       :     2.940678  s :     2.940678
      pz      :     1.076706  p :     3.089847
      px      :     0.987009
      py      :     1.026131
      dz2     :     0.029126  d :     0.087097
      dxz     :     0.029228
      dyz     :     0.003639
      dx2y2   :     0.013798
      dxy     :     0.011307
  6 H s       :     0.864129  s :     0.864129
  7 H s       :     0.853215  s :     0.853215
  8 H s       :     0.850573  s :     0.850573
  9 H s       :     0.850694  s :     0.850694


                      *****************************
                      * MAYER POPULATION ANALYSIS *
                      *****************************

  NA   - Mulliken gross atomic population
  ZA   - Total nuclear charge
  QA   - Mulliken gross atomic charge
  VA   - Mayer's total valence
  BVA  - Mayer's bonded valence
  FA   - Mayer's free valence

  ATOM       NA         ZA         QA         VA         BVA        FA
  0 C      6.0192     6.0000    -0.0192     3.8869     3.8869     0.0000
  1 C      6.0314     6.0000    -0.0314     3.8859     3.8859    -0.0000
  2 C      6.2066     6.0000    -0.2066     3.9539     3.9539    -0.0000
  3 C      6.1980     6.0000    -0.1980     3.8672     3.8672     0.0000
  4 C      6.1859     6.0000    -0.1859     3.8653     3.8653    -0.0000
  5 C      6.2147     6.0000    -0.2147     3.8967     3.8967    -0.0000
  6 H      0.8006     1.0000     0.1994     0.9207     0.9207    -0.0000
  7 H      0.7844     1.0000     0.2156     0.9237     0.9237    -0.0000
  8 H      0.7797     1.0000     0.2203     0.9220     0.9220    -0.0000
  9 H      0.7794     1.0000     0.2206     0.9200     0.9200    -0.0000

  Mayer bond orders larger than 0.100000
B(  0-C ,  1-C ) :   2.4980 B(  0-C ,  5-C ) :   1.2613 B(  1-C ,  2-C ) :   1.3025 
B(  2-C ,  3-C ) :   1.5727 B(  2-C ,  5-C ) :   0.1205 B(  2-C ,  6-H ) :   0.9351 
B(  3-C ,  4-C ) :   1.3231 B(  3-C ,  7-H ) :   0.9336 B(  4-C ,  5-C ) :   1.5790 
B(  4-C ,  8-H ) :   0.9304 B(  5-C ,  9-H ) :   0.9297 

-------
TIMINGS
-------

Total SCF time: 0 days 0 hours 0 min 13 sec 

Total time                  ....      13.869 sec
Sum of individual times     ....      13.719 sec  ( 98.9%)

Fock matrix formation       ....      13.427 sec  ( 96.8%)
Diagonalization             ....       0.012 sec  (  0.1%)
Density matrix formation    ....       0.001 sec  (  0.0%)
Population analysis         ....       0.002 sec  (  0.0%)
Initial guess               ....       0.142 sec  (  1.0%)
Orbital Transformation      ....       0.000 sec  (  0.0%)
Orbital Orthonormalization  ....       0.000 sec  (  0.0%)
DIIS solution               ....       0.002 sec  (  0.0%)
SOSCF solution              ....       0.006 sec  (  0.0%)

Maximum memory used throughout the entire SCF-calculation: 233.3 MB

------------------------------------------------------------------------------
                                ORCA  MP2 
------------------------------------------------------------------------------

MP2 will be done in the AO integral direct mode
The Q1-step will be done using symmetric double matrices
Dimension of the basis                    ...   92
Memory devoted for MP2                    ...  256 MB   
Memory needed for all in one shot         ...   61 MB
Number of MOs that can be treated together...   84      
MP2 density construction                  ... relaxed
The MP2 gradient is requested => amplitudes will be stored on disk
Total number of MOs              ...   20
Number of MOs treated per batch  ...   20 
Number of batches necessary      ...    1 
OPERATORS   0/  0 PASS   0
-----------------------------------------------
 MP2 CORRELATION ENERGY   :     -0.779667338 Eh
-----------------------------------------------


---------------------
MP2 DENSITY FORMATION
---------------------

Completing the external part of the density      ... done
Storing the unrelaxed density                    ... done

Calculating G(D)                                 ... done
Completing the Lagrangian                        ... done
Solving the Z-vector equations                   ... 

------------------------------------------------------------------------------
                           ORCA CP-SCF CALCULATION
------------------------------------------------------------------------------

Input orbitals are from        ... benzyne_mp2.gbw
Input Perturbation             ... benzyne_mp2.pin.tmp
Wavefunction output            ... benzyne_mp2.pout.tmp
Perturbation mode              ... Real perturbation (singlet)
Solver                         ... POPLE
Max. number of iterations      ... 128
Convergence tolerance          ... 1.000e-04
Integral handling              ... Direct
Number of perturbations        ... 1
Number of operators            ... 1
Orbital ranges used for CP-SCF:
 Operator 0:  Orbitals   0... 19  to  20... 91
Variables per perturbation     ... 1440
Memory available               ... 1012.9 MB
Memory needed per perturbation ...   3.0 MB
Perturbations treated per batch... 1
Number of batches              ... 1
     CP-SCF ITERATION   0:   7.3995e-02 (   1.1 sec)
     CP-SCF ITERATION   1:   2.9757e-02 (   1.1 sec)
     CP-SCF ITERATION   2:   1.6437e-02 (   1.1 sec)
     CP-SCF ITERATION   3:   9.7231e-03 (   1.1 sec)
     CP-SCF ITERATION   4:   3.5771e-03 (   1.1 sec)
     CP-SCF ITERATION   5:   1.4258e-03 (   1.1 sec)
     CP-SCF ITERATION   6:   6.3521e-04 (   1.1 sec)
     CP-SCF ITERATION   7:   2.4878e-04 (   1.1 sec)
     CP-SCF ITERATION   8:   1.0509e-04 (   1.1 sec)
     CP-SCF ITERATION   9:   1.9835e-05 (   1.1 sec)
                    *** THE CP-SCF HAS CONVERGED ***
                                                 ... done
Finalizing the relaxed density                   ... done
Transforming P to the AO basis                   ... done
Storing the relaxed density                      ... done

------------------------------------
ENERGY WEIGHTED DENSITY FINALIZATION
------------------------------------

Gathering the parts of the W-matrix              ...                                                      done
Forming the Z-density                            ... done
Transforming Z to the AO basis                   ... done
Calculating G(Z)                                 ... done
Finalizing the W-matrix                          ...                                                      done
Transforming W to the AO basis and storing       ... done

                *********************************************
                * UNRELAXED MP2 DENSITY POPULATION ANALYSIS *
                *********************************************

------------------------------------------------------------------------------
                           ORCA POPULATION ANALYSIS
------------------------------------------------------------------------------
Input electron density              ... benzyne_mp2.pmp2ur
BaseName (.gbw .S,...)              ... benzyne_mp2

                    ********************************
                    * MULLIKEN POPULATION ANALYSIS *
                    ********************************

-----------------------
MULLIKEN ATOMIC CHARGES
-----------------------
   0 C :   -0.021316
   1 C :   -0.024076
   2 C :   -0.212521
   3 C :   -0.199262
   4 C :   -0.188748
   5 C :   -0.219470
   6 H :    0.202013
   7 H :    0.217915
   8 H :    0.222543
   9 H :    0.222922
Sum of atomic charges:   -0.0000000

--------------------------------
MULLIKEN REDUCED ORBITAL CHARGES
--------------------------------
  0 C s       :     3.179460  s :     3.179460
      pz      :     0.966904  p :     2.786735
      px      :     0.842370
      py      :     0.977460
      dz2     :     0.012765  d :     0.055121
      dxz     :     0.017338
      dyz     :     0.014278
      dx2y2   :     0.005252
      dxy     :     0.005488
  1 C s       :     3.139564  s :     3.139564
      pz      :     0.969827  p :     2.823806
      px      :     0.923247
      py      :     0.930732
      dz2     :     0.014933  d :     0.060705
      dxz     :     0.017491
      dyz     :     0.014341
      dx2y2   :     0.006658
      dxy     :     0.007282
  2 C s       :     3.195498  s :     3.195498
      pz      :     1.071672  p :     2.948709
      px      :     0.888834
      py      :     0.988203
      dz2     :     0.022736  d :     0.068313
      dxz     :     0.017270
      dyz     :     0.006177
      dx2y2   :     0.010995
      dxy     :     0.011135
  3 C s       :     3.173638  s :     3.173638
      pz      :     0.938550  p :     2.963629
      px      :     1.025236
      py      :     0.999844
      dz2     :     0.015226  d :     0.061995
      dxz     :     0.019418
      dyz     :     0.009531
      dx2y2   :     0.010381
      dxy     :     0.007440
  4 C s       :     3.175817  s :     3.175817
      pz      :     0.955241  p :     2.950423
      px      :     1.016704
      py      :     0.978477
      dz2     :     0.014904  d :     0.062507
      dxz     :     0.019546
      dyz     :     0.010000
      dx2y2   :     0.010293
      dxy     :     0.007764
  5 C s       :     3.214379  s :     3.214379
      pz      :     1.058370  p :     2.943567
      px      :     0.852510
      py      :     1.032688
      dz2     :     0.019559  d :     0.061524
      dxz     :     0.016507
      dyz     :     0.005988
      dx2y2   :     0.009700
      dxy     :     0.009769
  6 H s       :     0.797987  s :     0.797987
  7 H s       :     0.782085  s :     0.782085
  8 H s       :     0.777457  s :     0.777457
  9 H s       :     0.777078  s :     0.777078


                     *******************************
                     * LOEWDIN POPULATION ANALYSIS *
                     *******************************

----------------------
LOEWDIN ATOMIC CHARGES
----------------------
   0 C :   -0.010949
   1 C :   -0.077816
   2 C :   -0.103500
   3 C :   -0.146755
   4 C :   -0.133037
   5 C :   -0.123030
   6 H :    0.139465
   7 H :    0.150174
   8 H :    0.152770
   9 H :    0.152679

-------------------------------
LOEWDIN REDUCED ORBITAL CHARGES
-------------------------------
  0 C s       :     2.967543  s :     2.967543
      pz      :     1.116375  p :     2.945717
      px      :     0.861831
      py      :     0.967512
      dz2     :     0.030193  d :     0.097688
      dxz     :     0.028852
      dyz     :     0.023579
      dx2y2   :     0.007956
      dxy     :     0.007110
  1 C s       :     2.949518  s :     2.949518
      pz      :     1.136372  p :     3.017368
      px      :     0.952792
      py      :     0.928205
      dz2     :     0.036712  d :     0.110930
      dxz     :     0.028020
      dyz     :     0.024353
      dx2y2   :     0.011640
      dxy     :     0.010206
  2 C s       :     2.916015  s :     2.916015
      pz      :     1.073105  p :     3.064988
      px      :     1.016946
      py      :     0.974937
      dz2     :     0.039814  d :     0.122497
      dxz     :     0.035798
      dyz     :     0.007149
      dx2y2   :     0.021505
      dxy     :     0.018232
  3 C s       :     2.921484  s :     2.921484
      pz      :     1.056610  p :     3.113832
      px      :     1.066608
      py      :     0.990614
      dz2     :     0.031060  d :     0.111438
      dxz     :     0.038433
      dyz     :     0.015451
      dx2y2   :     0.016590
      dxy     :     0.009904
  4 C s       :     2.921986  s :     2.921986
      pz      :     1.064864  p :     3.098936
      px      :     1.064911
      py      :     0.969160
      dz2     :     0.029944  d :     0.112116
      dxz     :     0.038699
      dyz     :     0.016371
      dx2y2   :     0.016571
      dxy     :     0.010531
  5 C s       :     2.941611  s :     2.941611
      pz      :     1.072169  p :     3.075880
      px      :     0.982349
      py      :     1.021362
      dz2     :     0.032585  d :     0.105539
      dxz     :     0.033232
      dyz     :     0.006907
      dx2y2   :     0.017797
      dxy     :     0.015018
  6 H s       :     0.860535  s :     0.860535
  7 H s       :     0.849826  s :     0.849826
  8 H s       :     0.847230  s :     0.847230
  9 H s       :     0.847321  s :     0.847321


                      *****************************
                      * MAYER POPULATION ANALYSIS *
                      *****************************

  NA   - Mulliken gross atomic population
  ZA   - Total nuclear charge
  QA   - Mulliken gross atomic charge
  VA   - Mayer's total valence
  BVA  - Mayer's bonded valence
  FA   - Mayer's free valence

  ATOM       NA         ZA         QA         VA         BVA        FA
  0 C      6.0213     6.0000    -0.0213     3.9632     3.5050     0.4582
  1 C      6.0241     6.0000    -0.0241     3.9634     3.5209     0.4425
  2 C      6.2125     6.0000    -0.2125     4.0284     3.6750     0.3534
  3 C      6.1993     6.0000    -0.1993     3.9436     3.6068     0.3368
  4 C      6.1887     6.0000    -0.1887     3.9412     3.6064     0.3348
  5 C      6.2195     6.0000    -0.2195     3.9749     3.6112     0.3636
  6 H      0.7980     1.0000     0.2020     0.9234     0.8844     0.0390
  7 H      0.7821     1.0000     0.2179     0.9261     0.8881     0.0381
  8 H      0.7775     1.0000     0.2225     0.9243     0.8862     0.0380
  9 H      0.7771     1.0000     0.2229     0.9223     0.8844     0.0379

  Mayer bond orders larger than 0.100000
B(  0-C ,  1-C ) :   2.2469 B(  0-C ,  5-C ) :   1.1691 B(  1-C ,  2-C ) :   1.2190 
B(  2-C ,  3-C ) :   1.4526 B(  2-C ,  6-H ) :   0.9009 B(  3-C ,  4-C ) :   1.2422 
B(  3-C ,  7-H ) :   0.8999 B(  4-C ,  5-C ) :   1.4573 B(  4-C ,  8-H ) :   0.8966 
B(  5-C ,  9-H ) :   0.8959 


                *******************************************
                * RELAXED MP2 DENSITY POPULATION ANALYSIS *
                *******************************************

------------------------------------------------------------------------------
                           ORCA POPULATION ANALYSIS
------------------------------------------------------------------------------
Input electron density              ... benzyne_mp2.pmp2re
BaseName (.gbw .S,...)              ... benzyne_mp2

                    ********************************
                    * MULLIKEN POPULATION ANALYSIS *
                    ********************************

-----------------------
MULLIKEN ATOMIC CHARGES
-----------------------
   0 C :   -0.003142
   1 C :    0.002013
   2 C :   -0.202132
   3 C :   -0.163671
   4 C :   -0.169762
   5 C :   -0.203197
   6 H :    0.171829
   7 H :    0.187941
   8 H :    0.191960
   9 H :    0.188160
Sum of atomic charges:   -0.0000000

--------------------------------
MULLIKEN REDUCED ORBITAL CHARGES
--------------------------------
  0 C s       :     3.197941  s :     3.197941
      pz      :     0.948212  p :     2.756472
      px      :     0.858771
      py      :     0.949488
      dz2     :     0.011856  d :     0.048729
      dxz     :     0.013178
      dyz     :     0.013010
      dx2y2   :     0.005335
      dxy     :     0.005349
  1 C s       :     3.153613  s :     3.153613
      pz      :     0.971280  p :     2.790116
      px      :     0.861439
      py      :     0.957397
      dz2     :     0.013744  d :     0.054257
      dxz     :     0.014361
      dyz     :     0.012715
      dx2y2   :     0.006400
      dxy     :     0.007037
  2 C s       :     3.199993  s :     3.199993
      pz      :     1.046618  p :     2.940263
      px      :     0.898099
      py      :     0.995545
      dz2     :     0.020477  d :     0.061877
      dxz     :     0.015296
      dyz     :     0.005687
      dx2y2   :     0.009680
      dxy     :     0.010738
  3 C s       :     3.168218  s :     3.168218
      pz      :     0.942629  p :     2.939398
      px      :     0.995139
      py      :     1.001630
      dz2     :     0.013158  d :     0.056055
      dxz     :     0.017518
      dyz     :     0.009386
      dx2y2   :     0.009342
      dxy     :     0.006651
  4 C s       :     3.173931  s :     3.173931
      pz      :     0.958125  p :     2.939558
      px      :     0.991516
      py      :     0.989917
      dz2     :     0.012967  d :     0.056272
      dxz     :     0.017580
      dyz     :     0.009676
      dx2y2   :     0.009228
      dxy     :     0.006821
  5 C s       :     3.221538  s :     3.221538
      pz      :     1.029625  p :     2.926023
      px      :     0.875373
      py      :     1.021025
      dz2     :     0.018141  d :     0.055635
      dxz     :     0.014382
      dyz     :     0.005509
      dx2y2   :     0.008588
      dxy     :     0.009016
  6 H s       :     0.828171  s :     0.828171
  7 H s       :     0.812059  s :     0.812059
  8 H s       :     0.808040  s :     0.808040
  9 H s       :     0.811840  s :     0.811840


                     *******************************
                     * LOEWDIN POPULATION ANALYSIS *
                     *******************************

----------------------
LOEWDIN ATOMIC CHARGES
----------------------
   0 C :   -0.018110
   1 C :   -0.053931
   2 C :   -0.110727
   3 C :   -0.147196
   4 C :   -0.139855
   5 C :   -0.121556
   6 H :    0.138528
   7 H :    0.151019
   8 H :    0.152592
   9 H :    0.149236

-------------------------------
LOEWDIN REDUCED ORBITAL CHARGES
-------------------------------
  0 C s       :     2.974140  s :     2.974140
      pz      :     1.115727  p :     2.952249
      px      :     0.891784
      py      :     0.944737
      dz2     :     0.029906  d :     0.091722
      dxz     :     0.023941
      dyz     :     0.022825
      dx2y2   :     0.008138
      dxy     :     0.006912
  1 C s       :     2.953605  s :     2.953605
      pz      :     1.135283  p :     2.994868
      px      :     0.911011
      py      :     0.948574
      dz2     :     0.035433  d :     0.105457
      dxz     :     0.025633
      dyz     :     0.022701
      dx2y2   :     0.011624
      dxy     :     0.010066
  2 C s       :     2.921116  s :     2.921116
      pz      :     1.074654  p :     3.073499
      px      :     1.016728
      py      :     0.982117
      dz2     :     0.037258  d :     0.116112
      dxz     :     0.033617
      dyz     :     0.006775
      dx2y2   :     0.020388
      dxy     :     0.018075
  3 C s       :     2.925030  s :     2.925030
      pz      :     1.059394  p :     3.116244
      px      :     1.063561
      py      :     0.993288
      dz2     :     0.029090  d :     0.105922
      dxz     :     0.036611
      dyz     :     0.015379
      dx2y2   :     0.015537
      dxy     :     0.009304
  4 C s       :     2.925627  s :     2.925627
      pz      :     1.066006  p :     3.107984
      px      :     1.063340
      py      :     0.978638
      dz2     :     0.028316  d :     0.106244
      dxz     :     0.036734
      dyz     :     0.015996
      dx2y2   :     0.015526
      dxy     :     0.009672
  5 C s       :     2.947838  s :     2.947838
      pz      :     1.072688  p :     3.073924
      px      :     0.990383
      py      :     1.010853
      dz2     :     0.031232  d :     0.099794
      dxz     :     0.030881
      dyz     :     0.006546
      dx2y2   :     0.016995
      dxy     :     0.014140
  6 H s       :     0.861472  s :     0.861472
  7 H s       :     0.848981  s :     0.848981
  8 H s       :     0.847408  s :     0.847408
  9 H s       :     0.850764  s :     0.850764


                      *****************************
                      * MAYER POPULATION ANALYSIS *
                      *****************************

  NA   - Mulliken gross atomic population
  ZA   - Total nuclear charge
  QA   - Mulliken gross atomic charge
  VA   - Mayer's total valence
  BVA  - Mayer's bonded valence
  FA   - Mayer's free valence

  ATOM       NA         ZA         QA         VA         BVA        FA
  0 C      6.0031     6.0000    -0.0031     3.9549     3.5133     0.4417
  1 C      5.9980     6.0000     0.0020     3.9480     3.5179     0.4301
  2 C      6.2021     6.0000    -0.2021     4.0496     3.7015     0.3481
  3 C      6.1637     6.0000    -0.1637     3.9888     3.6593     0.3295
  4 C      6.1698     6.0000    -0.1698     3.9855     3.6576     0.3279
  5 C      6.2032     6.0000    -0.2032     4.0078     3.6507     0.3571
  6 H      0.8282     1.0000     0.1718     0.9312     0.8922     0.0390
  7 H      0.8121     1.0000     0.1879     0.9327     0.8945     0.0383
  8 H      0.8080     1.0000     0.1920     0.9312     0.8929     0.0383
  9 H      0.8118     1.0000     0.1882     0.9320     0.8939     0.0382

  Mayer bond orders larger than 0.100000
B(  0-C ,  1-C ) :   2.2075 B(  0-C ,  5-C ) :   1.1873 B(  1-C ,  2-C ) :   1.2256 
B(  2-C ,  3-C ) :   1.4379 B(  2-C ,  5-C ) :   0.1084 B(  2-C ,  6-H ) :   0.8974 
B(  3-C ,  4-C ) :   1.2805 B(  3-C ,  7-H ) :   0.8938 B(  4-C ,  5-C ) :   1.4405 
B(  4-C ,  8-H ) :   0.8902 B(  5-C ,  9-H ) :   0.8948 


----------------------------------
MP2 DERIVATIVE INTEGRAL GENERATION
----------------------------------


Input Wavefunction Amplitudes       ... benzyne_mp2.mp2tsaa.tmp
Input Correlated Electron Density   ... benzyne_mp2.pmp2re
Input Energy Weighted Density       ... benzyne_mp2.wmp2.tmp
Input SCF Electron Density          ... benzyne_mp2.scfp

One-Electron Terms    ...
                        ... One-Electron Terms done
Prescreening matrices              ... done

Batch handling in the gradient evaluation:
Memory available                      ...  256.0 MB
Memory per occupied orbital in Q2     ...    1.3 MB
Memory per occupied orbital in Q3     ...    0.0 MB
Total memory requirement per |i>      ...    1.3 MB
Max. Number of orbitals possible      ...    195
Number of orbitals treated per batch  ...     20
Number of batches to be done          ...      1
Batch   0: i=    0 ...    19

---------------------------------------
MP2 TOTAL ENERGY:     -230.143242509 Eh
---------------------------------------

The final MP2 gradient
  0:  -0.05439287  -0.00000000   0.17527059
  1:  -0.02196462  -0.00000000  -0.10349980
  2:  -0.00334475  -0.00000000  -0.04368225
  3:   0.01178089   0.00000000  -0.00595964
  4:   0.01678982   0.00000000   0.00481144
  5:   0.04344267   0.00000000  -0.02342167
  6:  -0.00548396   0.00000000  -0.00088710
  7:   0.00328239  -0.00000000  -0.00163736
  8:   0.00282862   0.00000000   0.00189757
  9:   0.00706181   0.00000000  -0.00289177

-----------------------------------
NORM OF THE MP2 GRADIENT:  0.223208
-----------------------------------

Maximum memory used throughout the entire MP2-calculation: 108.4 MB

-------------------------   --------------------
FINAL SINGLE POINT ENERGY      -230.143242509014
-------------------------   --------------------

------------------------------------------------------------------------------
                         ORCA GEOMETRY RELAXATION STEP
------------------------------------------------------------------------------

Reading the OPT-File                    .... done
Getting information on internals        .... done
Copying old internal coords+grads       .... done
Making the new internal coordinates     .... (new redundants).... done
Validating the new internal coordinates .... (new redundants).... done
Calculating the B-matrix                .... done
Calculating the G,G- and P matrices     .... done
Transforming gradient to internals      .... done
Projecting the internal gradient        .... done
Number of atoms                         ....  10
Number of internal coordinates          ....  41
Current Energy                          ....  -230.143242509 Eh
Current gradient norm                   ....     0.223207727 Eh/bohr
Maximum allowed component of the step   ....  0.300
Current trust radius                    ....  0.300
Evaluating the initial hessian          ....  (Almloef) done
Projecting the Hessian                  .... done
Forming the augmented Hessian           .... done
Diagonalizing the augmented Hessian     .... done
Last element of RFO vector              ....  0.971233977
Lowest eigenvalues of augmented Hessian:
 -0.035969420  0.018713995  0.021319839  0.024156040  0.024859337
Length of the computed step             ....  0.245180050
The final length of the internal step   ....  0.245180050
Converting the step to cartesian space:
 Initial RMS(Int)=    0.0382906908
Transforming coordinates:
 Iter   0:  RMS(Cart)=    0.0521861786 RMS(Int)=    1.9629113129
 Iter   1:  RMS(Cart)=    0.0008014279 RMS(Int)=    0.0006861429
 Iter   2:  RMS(Cart)=    0.0000351442 RMS(Int)=    0.0000239258
 Iter   3:  RMS(Cart)=    0.0000013806 RMS(Int)=    0.0000012569
 Iter   4:  RMS(Cart)=    0.0000000468 RMS(Int)=    0.0000000342
done
Storing new coordinates                 .... done

                                .--------------------.
          ----------------------|Geometry convergence|-------------------------
          Item                value                   Tolerance       Converged
          ---------------------------------------------------------------------
          RMS gradient        0.0258769444            0.0001000000      NO
          MAX gradient        0.1292703449            0.0003000000      NO
          RMS step            0.0382906908            0.0020000000      NO
          MAX step            0.1728322168            0.0040000000      NO
          ........................................................
          Max(Bonds)      0.0915      Max(Angles)    4.80
          Max(Dihed)        0.00      Max(Improp)    0.00
          ---------------------------------------------------------------------

The optimization has not yet converged - more geometry cycles are needed


    ---------------------------------------------------------------------------
                         Redundant Internal Coordinates
                            (Angstroem and degrees)

        Definition                    Value    dE/dq     Step     New-Value
    ----------------------------------------------------------------------------
     1. B(C   1,C   0)                1.2000 -0.129270  0.0549    1.2549   
     2. B(C   2,C   1)                1.4000 -0.001900  0.0035    1.4035   
     3. B(C   3,C   2)                1.4000  0.009232 -0.0096    1.3904   
     4. B(C   4,C   3)                1.4000 -0.026396  0.0180    1.4180   
     5. B(C   5,C   4)                1.4000  0.001560 -0.0032    1.3968   
     6. B(C   5,C   0)                1.5100  0.078544 -0.0915    1.4185   
     7. B(H   6,C   2)                1.0890 -0.000887  0.0012    1.0902   
     8. B(H   7,C   3)                1.0890  0.002024 -0.0027    1.0863   
     9. B(H   8,C   4)                1.0890  0.001501 -0.0020    1.0870   
    10. B(H   9,C   5)                1.0890  0.002892 -0.0039    1.0851   
    11. A(C   1,C   0,C   5)          126.59  0.005585    0.56    127.14   
    12. A(C   0,C   1,C   2)          120.00 -0.015457    2.79    122.79   
    13. A(C   1,C   2,H   6)          120.00 -0.023884    3.24    123.24   
    14. A(C   1,C   2,C   3)          120.00  0.036483   -4.80    115.20   
    15. A(C   3,C   2,H   6)          120.00 -0.012599    1.57    121.57   
    16. A(C   2,C   3,C   4)          120.00 -0.012867    0.70    120.70   
    17. A(C   4,C   3,H   7)          120.00  0.003286    0.11    120.11   
    18. A(C   2,C   3,H   7)          120.00  0.009581   -0.82    119.18   
    19. A(C   5,C   4,H   8)          120.00  0.015268   -1.56    118.44   
    20. A(C   3,C   4,H   8)          120.00  0.008975   -0.63    119.37   
    21. A(C   3,C   4,C   5)          120.00 -0.024243    2.20    122.20   
    22. A(C   4,C   5,H   9)          120.00 -0.012516    1.81    121.81   
    23. A(C   0,C   5,H   9)          126.59  0.002017   -0.36    126.23   
    24. A(C   0,C   5,C   4)          113.41  0.010499   -1.45    111.96   
    25. D(C   2,C   1,C   0,C   5)      0.00 -0.000000    0.00      0.00   
    26. D(H   6,C   2,C   1,C   0)    180.00 -0.000000    0.00    180.00   
    27. D(C   3,C   2,C   1,C   0)      0.00 -0.000000    0.00      0.00   
    28. D(H   7,C   3,C   2,C   1)    180.00  0.000000   -0.00    180.00   
    29. D(C   4,C   3,C   2,H   6)    180.00  0.000000   -0.00    180.00   
    30. D(H   7,C   3,C   2,H   6)      0.00  0.000000   -0.00     -0.00   
    31. D(C   4,C   3,C   2,C   1)      0.00  0.000000   -0.00     -0.00   
    32. D(H   8,C   4,C   3,C   2)    180.00  0.000000   -0.00    180.00   
    33. D(C   5,C   4,C   3,H   7)    180.00 -0.000000    0.00    180.00   
    34. D(H   8,C   4,C   3,H   7)      0.00 -0.000000    0.00      0.00   
    35. D(C   5,C   4,C   3,C   2)      0.00 -0.000000   -0.00     -0.00   
    36. D(C   0,C   5,C   4,C   3)      0.00 -0.000000    0.00      0.00   
    37. D(H   9,C   5,C   0,C   1)    180.00  0.000000    0.00    180.00   
    38. D(C   0,C   5,C   4,H   8)    180.00 -0.000000    0.00    180.00   
    39. D(C   4,C   5,C   0,C   1)      0.00  0.000000   -0.00     -0.00   
    40. D(H   9,C   5,C   4,H   8)      0.00 -0.000000    0.00      0.00   
    41. D(H   9,C   5,C   4,C   3)    180.00  0.000000   -0.00    180.00   
    ----------------------------------------------------------------------------

         *************************************************************
         *                GEOMETRY OPTIMIZATION CYCLE   2            *
         *************************************************************
---------------------------------
CARTESIAN COORDINATES (ANGSTROEM)
---------------------------------
  C      0.060594    0.000000   -0.075560
  C      0.050916    0.000000    1.179290
  C      1.224613   -0.000000    1.949093
  C      2.410044   -0.000000    1.222280
  C      2.390341   -0.000000   -0.195579
  C      1.198032   -0.000000   -0.922936
  H      1.223877   -0.000000    3.039274
  H      3.357276    0.000000    1.754078
  H      3.330086    0.000000   -0.741887
  H      1.189653   -0.000000   -2.008053

----------------------------
CARTESIAN COORDINATES (A.U.)
----------------------------
  NO LB      ZA    FRAG     MASS         X           Y           Z
   0 C     6.0000    0    12.011    0.114506    0.000000   -0.142788
   1 C     6.0000    0    12.011    0.096217    0.000000    2.228536
   2 C     6.0000    0    12.011    2.314184   -0.000000    3.683252
   3 C     6.0000    0    12.011    4.554322   -0.000000    2.309774
   4 C     6.0000    0    12.011    4.517090   -0.000000   -0.369591
   5 C     6.0000    0    12.011    2.263952   -0.000000   -1.744097
   6 H     1.0000    0     1.008    2.312792   -0.000000    5.743396
   7 H     1.0000    0     1.008    6.344333    0.000000    3.314726
   8 H     1.0000    0     1.008    6.292951    0.000000   -1.401963
   9 H     1.0000    0     1.008    2.248118   -0.000000   -3.794670

--------------------------------
INTERNAL COORDINATES (ANGSTROEM)
--------------------------------
 C      0   0   0     0.000000000000     0.00000000     0.00000000
 C      1   0   0     1.254888061121     0.00000000     0.00000000
 C      2   1   0     1.403624523099   122.81812834     0.00000000
 C      3   2   1     1.390504315605   115.22661449     0.00000000
 C      4   3   2     1.417995963540   120.71725242     0.00000000
 C      5   4   3     1.396656700273   122.18100590     0.00000000
 H      3   2   1     1.090181269855   123.22130041   180.00000085
 H      4   3   2     1.086305161833   119.17578470   180.00000000
 H      5   4   3     1.087001699333   119.37484403   180.00000000
 H      6   5   4     1.085149275241   121.82726930   179.99999915

---------------------------
INTERNAL COORDINATES (A.U.)
---------------------------
 C      0   0   0     0.000000000000     0.00000000     0.00000000
 C      1   0   0     2.371394764247     0.00000000     0.00000000
 C      2   1   0     2.652465943513   122.81812834     0.00000000
 C      3   2   1     2.627672344529   115.22661449     0.00000000
 C      4   3   2     2.679624030096   120.71725242     0.00000000
 C      5   4   3     2.639298666622   122.18100590     0.00000000
 H      3   2   1     2.060144036357   123.22130041   180.00000085
 H      4   3   2     2.052819253730   119.17578470   180.00000000
 H      5   4   3     2.054135518847   119.37484403   180.00000000
 H      6   5   4     2.050634944629   121.82726930   179.99999915

------------------------------------------------------------------------------
                   ___                                                        
                  /   \      - P O W E R E D   B Y -                         
                 /     \                                                     
                 |  |  |   _    _      __       _____    __    __             
                 |  |  |  | |  | |    /  \     |  _  \  |  |  /  |          
                  \  \/   | |  | |   /    \    | | | |  |  | /  /          
                 / \  \   | |__| |  /  /\  \   | |_| |  |  |/  /          
                |  |  |   |  __  | /  /__\  \  |    /   |      \           
                |  |  |   | |  | | |   __   |  |    \   |  |\   \          
                \     /   | |  | | |  |  |  |  | |\  \  |  | \   \       
                 \___/    |_|  |_| |__|  |__|  |_| \__\ |__|  \__/        
                                                                              
                      - O R C A' S   B I G   F R I E N D -                    
                                      &                                       
                       - I N T E G R A L  F E E D E R -                       
                                                                              
 v1 FN, 2020, v2 2021                                                         
------------------------------------------------------------------------------


Reading SHARK input file benzyne_mp2.SHARKINP.tmp ... ok
----------------------
SHARK INTEGRAL PACKAGE
----------------------

Number of atoms                             ...     10
Number of basis functions                   ...     92
Number of shells                            ...     44
Maximum angular momentum                    ...      2
Integral batch strategy                     ... SHARK/LIBINT Hybrid
RI-J (if used) integral strategy            ... SPLIT-RIJ (Revised 2003 algorithm where possible)
Printlevel                                  ...      1
Contraction scheme used                     ... SEGMENTED contraction
Coulomb Range Separation                    ... NOT USED
Exchange Range Separation                   ... NOT USED
Finite Nucleus Model                        ... NOT USED
Auxiliary Coulomb fitting basis             ... NOT available
Auxiliary J/K fitting basis                 ... NOT available
Auxiliary Correlation fitting basis         ... NOT available
Auxiliary 'external' fitting basis          ... NOT available
Integral threshold                          ...     2.500000e-11
Primitive cut-off                           ...     2.500000e-12
Primitive pair pre-selection threshold      ...     2.500000e-12

Calculating pre-screening integrals         ... done (  0.1 sec) Dimension = 44
Organizing shell pair data                  ... done (  0.0 sec)
Shell pair information
Total number of shell pairs                 ...       990
Shell pairs after pre-screening             ...       976
Total number of primitive shell pairs       ...      5809
Primitive shell pairs kept                  ...      4218
          la=0 lb=0:    337 shell pairs
          la=1 lb=0:    312 shell pairs
          la=1 lb=1:     78 shell pairs
          la=2 lb=0:    156 shell pairs
          la=2 lb=1:     72 shell pairs
          la=2 lb=2:     21 shell pairs

Calculating one electron integrals          ... done (  0.0 sec)
Calculating Nuclear repulsion               ... done (  0.0 sec) ENN=    186.708973070622 Eh

SHARK setup successfully completed in   0.2 seconds

Maximum memory used throughout the entire GTOINT-calculation: 10.2 MB

Diagonalization of the overlap matrix:
Smallest eigenvalue                        ... 7.715e-04
Time for diagonalization                   ...    0.002 sec
Threshold for overlap eigenvalues          ... 1.000e-08
Number of eigenvalues below threshold      ... 0
Time for construction of square roots      ...    0.000 sec
Total time needed                          ...    0.002 sec

--------------
SCF ITERATIONS
--------------
ITER       Energy         Delta-E        Max-DP      RMS-DP      [F,P]     Damp
               ***  Starting incremental Fock matrix formation  ***
  0   -229.3747987521   0.000000000000 0.00462477  0.00030831  0.0203206 0.7000
                      *** Initiating the SOSCF procedure ***
                      *** Re-Reading the Fockian *** 
                      *** Removing any level shift *** 
ITER      Energy       Delta-E        Grad      Rot      Max-DP    RMS-DP
  1   -229.37616772  -0.0013689715  0.002548  0.002548  0.015024  0.000910
               *** Restarting incremental Fock matrix formation ***
  2   -229.37998242  -0.0038146981  0.003769  0.007394  0.006285  0.000415
  3   -229.38042882  -0.0004463955  0.002970  0.007429  0.005660  0.000311
  4   -229.38060820  -0.0001793816  0.000924  0.002849  0.001689  0.000098
  5   -229.38063856  -0.0000303576  0.000408  0.001632  0.001068  0.000068
  6   -229.38064779  -0.0000092318  0.000138  0.000357  0.000209  0.000014
  7   -229.38064820  -0.0000004119  0.000055  0.000252  0.000173  0.000009
  8   -229.38064832  -0.0000001186  0.000034  0.000146  0.000118  0.000005
  9   -229.38064836  -0.0000000364  0.000017  0.000082  0.000068  0.000003
 10   -229.38064837  -0.0000000125  0.000007  0.000018  0.000016  0.000001
                  ***Gradient check signals convergence***
              ***Rediagonalizing the Fockian in SOSCF/NRSCF***

               *****************************************************
               *                     SUCCESS                       *
               *           SCF CONVERGED AFTER  11 CYCLES          *
               *****************************************************

Total Energy       :         -229.38064837 Eh           -6241.76477 eV
  Last Energy change         ...   -2.0012e-09  Tolerance :   1.0000e-08
  Last MAX-Density change    ...    6.0063e-06  Tolerance :   1.0000e-07
             **** THE GBW FILE WAS UPDATED (benzyne_mp2.gbw) ****
             **** DENSITY benzyne_mp2.scfp WAS UPDATED ****
             **** ENERGY FILE WAS UPDATED (benzyne_mp2.en.tmp) ****
             **** THE GBW FILE WAS UPDATED (benzyne_mp2.gbw) ****
             **** DENSITY benzyne_mp2.scfp WAS UPDATED ****
Total SCF time: 0 days 0 hours 0 min 11 sec 

Maximum memory used throughout the entire SCF-calculation: 233.2 MB

------------------------------------------------------------------------------
                                ORCA  MP2 
------------------------------------------------------------------------------

MP2 will be done in the AO integral direct mode
The Q1-step will be done using symmetric double matrices
Dimension of the basis                    ...   92
Memory devoted for MP2                    ...  256 MB   
Memory needed for all in one shot         ...   61 MB
Number of MOs that can be treated together...   84      
MP2 density construction                  ... relaxed
The MP2 gradient is requested => amplitudes will be stored on disk
Total number of MOs              ...   20
Number of MOs treated per batch  ...   20 
Number of batches necessary      ...    1 
OPERATORS   0/  0 PASS   0
-----------------------------------------------
[...]
     15       0.000000   0.000000   0.000000   0.000000   0.000000   0.000000
     16       0.000000   0.000000   0.000000   0.000000   0.000000   0.000000
     17       0.000000   0.000000   0.000000   0.000000   0.000000   0.000000
     18       0.000000   0.000000   0.000000   0.000000   0.000000   0.000000
     19       0.000000   0.000000   0.000000   0.000000   0.000000   0.000000
     20       0.000000   0.000000   0.000000   0.000000   0.000000   0.000000
     21       0.000000   0.000000   0.000000   0.000000   0.000000   0.000000
     22       0.000000   0.000000   0.000000   0.000000   0.000000   0.000000
     23       0.000000   0.000000   0.000000   0.000000   0.000000   0.000000
     24       0.000000   0.000000   0.000000   0.000000   0.000000   0.000000
     25       0.000000   0.000000   0.000000   0.000000   0.000000   0.000000
     26       0.000000   0.000000   0.000000   0.000000   0.000000   0.000000
     27       0.000000   0.000000   0.000000   0.000000   0.000000   0.000000
     28       0.000000   0.000000   0.000000   0.000000   0.000000   0.000000
     29       0.000000   0.000000   0.000000   0.000000   0.000000   0.000000
                  6          7          8          9         10         11    
      0      -0.000000  -0.000000  -0.000000  -0.459861   0.292422  -0.000000
      1      -0.145871   0.371548   0.325201  -0.000000   0.000000  -0.043133
      2      -0.000000  -0.000000  -0.000000  -0.288234   0.000212  -0.000000
      3      -0.000000   0.000000   0.000000   0.453674   0.292958  -0.000000
      4      -0.145804  -0.371597  -0.324972   0.000000  -0.000000  -0.043206
      5      -0.000000  -0.000000  -0.000000  -0.296003  -0.006013  -0.000000
      6       0.000000   0.000000   0.000000   0.128599  -0.033121   0.000000
      7       0.224299  -0.004885   0.347071  -0.000000   0.000000   0.086274
      8       0.000000   0.000000   0.000000   0.075438   0.370237   0.000000
      9       0.000000   0.000000   0.000000   0.174493  -0.241871   0.000000
     10      -0.124940   0.257805  -0.405934   0.000000   0.000000   0.039606
     11      -0.000000   0.000000   0.000000   0.201056   0.042181   0.000000
     12      -0.000000  -0.000000  -0.000000  -0.170408  -0.242957  -0.000000
     13      -0.124785  -0.257892   0.405900  -0.000000  -0.000000   0.039747
     14       0.000000   0.000000   0.000000   0.204206  -0.037360   0.000000
     15       0.000000  -0.000000  -0.000000  -0.126812  -0.040105   0.000000
     16       0.224217   0.005008  -0.347366   0.000000  -0.000000   0.086265
     17      -0.000000   0.000000   0.000000   0.078323  -0.369526  -0.000000
     18       0.000000   0.000000  -0.000000  -0.203290  -0.084441   0.000000
     19       0.637084   0.023710   0.082334  -0.000000   0.000000  -0.456203
     20       0.000000   0.000000   0.000000   0.075839   0.372118  -0.000000
     21       0.000000   0.000000   0.000000   0.245517  -0.077167   0.000000
     22      -0.083764   0.542861  -0.319408  -0.000000   0.000000  -0.529768
     23      -0.000000  -0.000000  -0.000000   0.073990  -0.253368  -0.000000
     24      -0.000000  -0.000000  -0.000000  -0.243987  -0.073112   0.000000
     25      -0.083587  -0.543182   0.320124   0.000000  -0.000000  -0.529831
     26      -0.000000  -0.000000  -0.000000   0.077965   0.254923   0.000000
     27       0.000000  -0.000000   0.000000   0.205524  -0.090885  -0.000000
     28       0.637040  -0.023231  -0.081853   0.000000  -0.000000  -0.456883
     29      -0.000000   0.000000   0.000000   0.072645  -0.370472   0.000000
                 12         13         14         15         16         17    
      0       0.000000  -0.000000   0.212080  -0.000000  -0.039479   0.212668
      1       0.007642   0.004126   0.000000   0.033410  -0.000000  -0.000000
      2      -0.000000  -0.000000   0.021896   0.000000   0.001016   0.085864
      3      -0.000000   0.000000  -0.211380   0.000000  -0.039367   0.211680
      4      -0.007660   0.004390  -0.000000  -0.033360  -0.000000  -0.000000
      5      -0.000000  -0.000000   0.025329   0.000000  -0.000361  -0.089782
      6      -0.000000  -0.000000   0.076798  -0.000000  -0.098759  -0.126487
      7       0.063581  -0.082663  -0.000000  -0.045645  -0.000000   0.000000
      8       0.000000   0.000000  -0.221706  -0.000000   0.120364  -0.182549
      9      -0.000000  -0.000000   0.338481  -0.000000   0.176984  -0.029047
     10       0.088792   0.080307   0.000000   0.027174   0.000000   0.000000
     11      -0.000000  -0.000000   0.207499   0.000000   0.148508  -0.021816
     12       0.000000   0.000000  -0.334365   0.000000   0.174519  -0.028273
     13      -0.088408   0.080870   0.000000  -0.026812   0.000000   0.000000
     14      -0.000000  -0.000000   0.213579   0.000000  -0.151670   0.022377
     15       0.000000   0.000000  -0.081274   0.000000  -0.101065  -0.123167
     16      -0.063876  -0.082630  -0.000000   0.045201  -0.000000   0.000000
     17       0.000000   0.000000  -0.219953  -0.000000  -0.118556   0.184782
     18       0.000000   0.000000  -0.132839  -0.000000  -0.529737  -0.550621
     19      -0.445362   0.479451   0.000000   0.540483  -0.000000   0.000000
     20       0.000000   0.000000  -0.217695  -0.000000   0.137981  -0.193651
     21       0.000000  -0.000000   0.417198  -0.000000   0.100096  -0.148871
     22      -0.538800  -0.503693  -0.000000  -0.454272  -0.000000  -0.000000
     23      -0.000000  -0.000000   0.056590   0.000000   0.332954   0.183457
     24      -0.000000   0.000000  -0.416189   0.000000   0.094557  -0.151401
     25       0.536155  -0.508726  -0.000000   0.452062  -0.000000  -0.000000
     26      -0.000000  -0.000000   0.063382   0.000000  -0.334299  -0.180057
     27      -0.000000  -0.000000   0.127777  -0.000000  -0.532771  -0.547686
     28       0.447151   0.480553   0.000000  -0.537905   0.000000   0.000000
     29       0.000000   0.000000  -0.219753  -0.000000  -0.128302   0.203636
                 18         19         20         21         22         23    
      0       0.038257   0.015136  -0.065296  -0.049438  -0.108464  -0.012394
      1      -0.000000   0.000000   0.000000   0.000000   0.000000  -0.000000
      2      -0.022496  -0.000986   0.093375  -0.007920   0.094979  -0.067798
      3      -0.038495   0.015242   0.067026  -0.049399   0.109992  -0.033232
      4       0.000000  -0.000000  -0.000000   0.000000  -0.000000   0.000000
      5      -0.021936   0.000813   0.092303   0.008896   0.093370   0.054572
      6      -0.056230   0.013867   0.002105   0.218236  -0.132173   0.058060
      7      -0.000000   0.000000   0.000000  -0.000000   0.000000  -0.000000
      8       0.102421  -0.001696  -0.068705  -0.026129  -0.125071   0.086449
      9       0.057718  -0.027983  -0.005827  -0.104409  -0.066444   0.026642
     10      -0.000000  -0.000000   0.000000  -0.000000   0.000000   0.000000
     11      -0.049502   0.049999  -0.032436   0.078694   0.090321  -0.281421
     12      -0.058659  -0.028789   0.005387  -0.106441   0.067806   0.090660
     13       0.000000   0.000000  -0.000000  -0.000000  -0.000000   0.000000
     14      -0.048735  -0.049418  -0.032475  -0.077263   0.088968   0.313119
     15       0.058060   0.013844  -0.003613   0.218745   0.130505  -0.013429
     16       0.000000   0.000000  -0.000000   0.000000  -0.000000  -0.000000
     17       0.101479   0.001225  -0.068710   0.022274  -0.127476  -0.094091
     18      -0.386179   0.300452  -0.655937  -0.641231   0.214794  -0.405864
     19       0.000000  -0.000000  -0.000000   0.000000  -0.000000  -0.000000
     20       0.115538  -0.005723  -0.069688  -0.022853  -0.148302   0.102989
     21       0.293291  -0.303319  -0.121308  -0.117803   0.266963  -0.314476
     22       0.000000  -0.000000  -0.000000   0.000000  -0.000000  -0.000000
     23      -0.478690   0.561102   0.175834   0.085896  -0.541732   0.304892
     24      -0.302715  -0.312798   0.124768  -0.117920  -0.276976  -0.346188
     25      -0.000000  -0.000000   0.000000   0.000000   0.000000  -0.000000
     26      -0.475037  -0.554639   0.173955  -0.080505  -0.537006  -0.429640
     27       0.387835   0.299975   0.655077  -0.639828  -0.219352  -0.319349
     28      -0.000000  -0.000000   0.000000   0.000000   0.000000  -0.000000
     29       0.108582  -0.000004  -0.081731   0.034706  -0.144358  -0.107295
                 24         25         26         27         28         29    
      0       0.083901   0.103913   0.000562  -0.000293  -0.001903  -0.002012
      1      -0.000000  -0.000000  -0.000000   0.000000  -0.000000  -0.000000
      2      -0.040685  -0.656283   0.000060   0.000545   0.001693   0.001248
      3      -0.077521   0.114882  -0.000562  -0.000301   0.001948  -0.002010
      4       0.000000  -0.000000   0.000000  -0.000000   0.000000   0.000000
      5      -0.059696   0.654029   0.000071  -0.000540   0.001673  -0.001192
      6       0.253893  -0.078719   0.001584   0.001926   0.000177  -0.000183
      7      -0.000000   0.000000  -0.000000  -0.000000  -0.000000  -0.000000
      8      -0.044367  -0.106554   0.013163   0.019360  -0.061263   0.059257
      9      -0.224861  -0.025727  -0.051982  -0.050105  -0.015176   0.019952
     10      -0.000000  -0.000000  -0.000000  -0.000000  -0.000000   0.000000
     11       0.172319   0.080518  -0.026486  -0.030512  -0.004510   0.009525
     12       0.207378  -0.027089   0.051399  -0.049672   0.014852   0.019898
     13       0.000000   0.000000   0.000000  -0.000000   0.000000   0.000000
     14       0.070196  -0.079977  -0.027355   0.031474  -0.004662  -0.009919
     15      -0.260957  -0.077294  -0.001342   0.001580  -0.001274  -0.001271
     16       0.000000   0.000000   0.000000  -0.000000   0.000000  -0.000000
     17      -0.009733   0.108172   0.013125  -0.019366  -0.060693  -0.059841
     18      -0.266936  -0.108734  -0.003468  -0.004796   0.005959  -0.006108
     19       0.000000   0.000000   0.000000   0.000000   0.000000   0.000000
     20      -0.055683  -0.133325  -0.165283  -0.235779   0.688181  -0.661066
     21       0.142030   0.047605   0.604714   0.581946   0.146353  -0.205186
     22       0.000000   0.000000   0.000000   0.000000   0.000000  -0.000000
     23      -0.544314  -0.046456   0.323203   0.317614   0.075507  -0.109787
     24      -0.042635   0.048437  -0.597640   0.577557  -0.142474  -0.204322
     25      -0.000000   0.000000  -0.000000   0.000000  -0.000000  -0.000000
     26      -0.422024   0.045401   0.333377  -0.328830   0.076728   0.114077
     27       0.384010  -0.106056   0.000451  -0.000497   0.006550   0.006028
     28      -0.000000   0.000000  -0.000000   0.000000  -0.000000   0.000000
     29      -0.026977   0.135511  -0.164538   0.235557   0.681966   0.667768


-----------
IR SPECTRUM
-----------

 Mode   freq       eps      Int      T**2         TX        TY        TZ
       cm**-1   L/(mol*cm) km/mol    a.u.
----------------------------------------------------------------------------
  6:    387.17   0.000899    4.54  0.000725  (-0.000000  0.026922  0.000000)
  7:    471.28   0.000000    0.00  0.000000  ( 0.000000  0.000012  0.000000)
  8:    558.23   0.000000    0.00  0.000000  ( 0.000000  0.000048  0.000000)
  9:    592.67   0.001977    9.99  0.001041  ( 0.000276 -0.000000  0.032263)
 10:    615.23   0.000017    0.09  0.000009  (-0.002933 -0.000000  0.000021)
 11:    745.85   0.014583   73.70  0.006102  (-0.000000 -0.078113  0.000000)
 12:    853.11   0.000000    0.00  0.000000  ( 0.000000 -0.000036  0.000000)
 13:    877.62   0.000151    0.76  0.000054  (-0.000000 -0.007329  0.000000)
 14:    882.12   0.001962    9.92  0.000694  (-0.000236 -0.000000 -0.026345)
 15:    891.84   0.000000    0.00  0.000000  (-0.000000 -0.000011 -0.000000)
 16:   1023.15   0.000485    2.45  0.000148  (-0.012161 -0.000000  0.000121)
 17:   1085.13   0.003981   20.12  0.001145  (-0.033834  0.000000  0.000270)
 18:   1142.67   0.000131    0.66  0.000036  (-0.000070  0.000000 -0.005983)
 19:   1202.32   0.000151    0.76  0.000039  ( 0.006257 -0.000000 -0.000064)
 20:   1293.91   0.000017    0.08  0.000004  (-0.000025 -0.000000 -0.002006)
 21:   1406.26   0.000254    1.29  0.000056  (-0.007514 -0.000000  0.000134)
 22:   1446.62   0.002677   13.53  0.000578  (-0.000254 -0.000000 -0.024031)
 23:   1525.64   0.000037    0.19  0.000008  ( 0.002597 -0.000000 -0.000917)
 24:   1526.24   0.000187    0.95  0.000038  (-0.000388  0.000000 -0.006177)
 25:   1959.50   0.000639    3.23  0.000102  (-0.010088  0.000000  0.000205)
 26:   3219.86   0.000075    0.38  0.000007  (-0.000032  0.000000 -0.002691)
 27:   3233.86   0.000610    3.08  0.000059  (-0.007674 -0.000000  0.000083)
 28:   3254.00   0.003797   19.19  0.000364  (-0.000217  0.000000 -0.019081)
 29:   3256.71   0.000950    4.80  0.000091  ( 0.009538 -0.000000 -0.000172)

* The epsilon (eps) is given for a Dirac delta lineshape.
** The dipole moment derivative (T) already includes vibrational overlap.

The first frequency considered to be a vibration is 6
The total number of vibrations considered is 24


--------------------------
THERMOCHEMISTRY AT 298.15K
--------------------------

Temperature         ... 298.15 K
Pressure            ... 1.00 atm
Total Mass          ... 76.10 AMU

Throughout the following assumptions are being made:
  (1) The electronic state is orbitally nondegenerate
  (2) There are no thermally accessible electronically excited states
  (3) Hindered rotations indicated by low frequency modes are not
      treated as such but are treated as vibrations and this may
      cause some error
  (4) All equations used are the standard statistical mechanics
      equations for an ideal gas
  (5) All vibrations are strictly harmonic

freq.     387.17  E(vib)   ...       0.20 
freq.     471.28  E(vib)   ...       0.15 
freq.     558.23  E(vib)   ...       0.12 
freq.     592.67  E(vib)   ...       0.10 
freq.     615.23  E(vib)   ...       0.10 
freq.     745.85  E(vib)   ...       0.06 
freq.     853.11  E(vib)   ...       0.04 
freq.     877.62  E(vib)   ...       0.04 
freq.     882.12  E(vib)   ...       0.04 
freq.     891.84  E(vib)   ...       0.03 
freq.    1023.15  E(vib)   ...       0.02 
freq.    1085.13  E(vib)   ...       0.02 
freq.    1142.67  E(vib)   ...       0.01 
freq.    1202.32  E(vib)   ...       0.01 
freq.    1293.91  E(vib)   ...       0.01 
freq.    1406.26  E(vib)   ...       0.00 
freq.    1446.62  E(vib)   ...       0.00 
freq.    1525.64  E(vib)   ...       0.00 
freq.    1526.24  E(vib)   ...       0.00 
freq.    1959.50  E(vib)   ...       0.00 
freq.    3219.86  E(vib)   ...       0.00 
freq.    3233.86  E(vib)   ...       0.00 
freq.    3254.00  E(vib)   ...       0.00 
freq.    3256.71  E(vib)   ...       0.00 

------------
INNER ENERGY
------------

The inner energy is: U= E(el) + E(ZPE) + E(vib) + E(rot) + E(trans)
    E(el)   - is the total energy from the electronic structure calculation
              = E(kin-el) + E(nuc-el) + E(el-el) + E(nuc-nuc)
    E(ZPE)  - the the zero temperature vibrational energy from the frequency calculation
    E(vib)  - the the finite temperature correction to E(ZPE) due to population
              of excited vibrational states
    E(rot)  - is the rotational thermal energy
    E(trans)- is the translational thermal energy

Summary of contributions to the inner energy U:
Electronic energy                ...   -230.16861218 Eh
Zero point energy                ...      0.07620704 Eh      47.82 kcal/mol
Thermal vibrational correction   ...      0.00153295 Eh       0.96 kcal/mol
Thermal rotational correction    ...      0.00141627 Eh       0.89 kcal/mol
Thermal translational correction ...      0.00141627 Eh       0.89 kcal/mol
-----------------------------------------------------------------------
Total thermal energy                   -230.08803965 Eh


Summary of corrections to the electronic energy:
(perhaps to be used in another calculation)
Total thermal correction                  0.00436549 Eh       2.74 kcal/mol
Non-thermal (ZPE) correction              0.07620704 Eh      47.82 kcal/mol
-----------------------------------------------------------------------
Total correction                          0.08057253 Eh      50.56 kcal/mol


--------
ENTHALPY
--------

The enthalpy is H = U + kB*T
                kB is Boltzmann's constant
Total free energy                 ...   -230.08803965 Eh 
Thermal Enthalpy correction       ...      0.00094421 Eh       0.59 kcal/mol
-----------------------------------------------------------------------
Total Enthalpy                    ...   -230.08709545 Eh


Note: Rotational entropy computed according to Herzberg 
Infrared and Raman Spectra, Chapter V,1, Van Nostrand Reinhold, 1945 
Point Group:  Cs, Symmetry Number:   1  
Rotational constants in cm-1:     0.232689     0.188881     0.104254 

Vibrational entropy computed according to the QRRHO of S. Grimme
Chem.Eur.J. 2012 18 9955


-------
ENTROPY
-------

The entropy contributions are T*S = T*(S(el)+S(vib)+S(rot)+S(trans))
     S(el)   - electronic entropy
     S(vib)  - vibrational entropy
     S(rot)  - rotational entropy
     S(trans)- translational entropy
The entropies will be listed as multiplied by the temperature to get
units of energy

Electronic entropy                ...      0.00000000 Eh      0.00 kcal/mol
Vibrational entropy               ...      0.00207335 Eh      1.30 kcal/mol
Rotational entropy                ...      0.01205331 Eh      7.56 kcal/mol
Translational entropy             ...      0.01848439 Eh     11.60 kcal/mol
-----------------------------------------------------------------------
Final entropy term                ...      0.03261105 Eh     20.46 kcal/mol

In case the symmetry of your molecule has not been determined correctly
or in case you have a reason to use a different symmetry number we print 
out the resulting rotational entropy values for sn=1,12 :
 --------------------------------------------------------
|  sn= 1 | S(rot)=       0.01205331 Eh      7.56 kcal/mol|
|  sn= 2 | S(rot)=       0.01139885 Eh      7.15 kcal/mol|
|  sn= 3 | S(rot)=       0.01101602 Eh      6.91 kcal/mol|
|  sn= 4 | S(rot)=       0.01074439 Eh      6.74 kcal/mol|
|  sn= 5 | S(rot)=       0.01053371 Eh      6.61 kcal/mol|
|  sn= 6 | S(rot)=       0.01036156 Eh      6.50 kcal/mol|
|  sn= 7 | S(rot)=       0.01021602 Eh      6.41 kcal/mol|
|  sn= 8 | S(rot)=       0.01008994 Eh      6.33 kcal/mol|
|  sn= 9 | S(rot)=       0.00997873 Eh      6.26 kcal/mol|
|  sn=10 | S(rot)=       0.00987925 Eh      6.20 kcal/mol|
|  sn=11 | S(rot)=       0.00978926 Eh      6.14 kcal/mol|
|  sn=12 | S(rot)=       0.00970711 Eh      6.09 kcal/mol|
 --------------------------------------------------------


-------------------
GIBBS FREE ENERGY
-------------------

The Gibbs free energy is G = H - T*S

Total enthalpy                    ...   -230.08709545 Eh 
Total entropy correction          ...     -0.03261105 Eh    -20.46 kcal/mol
-----------------------------------------------------------------------
Final Gibbs free energy         ...   -230.11970650 Eh

For completeness - the Gibbs free energy minus the electronic energy
G-E(el)                           ...      0.04890568 Eh     30.69 kcal/mol


Timings for individual modules:

Sum of individual times         ...     1194.741 sec (=  19.912 min)
GTO integral calculation        ...        1.791 sec (=   0.030 min)   0.1 %
SCF iterations                  ...       76.851 sec (=   1.281 min)   6.4 %
MP2 module                      ...      181.249 sec (=   3.021 min)  15.2 %
Geometry relaxation             ...        0.274 sec (=   0.005 min)   0.0 %
Analytical frequency calculation...      934.576 sec (=  15.576 min)  78.2 %
                             ****ORCA TERMINATED NORMALLY****
TOTAL RUN TIME: 0 days 0 hours 19 minutes 55 seconds 178 msec
