
                                 *****************
                                 * O   R   C   A *
                                 *****************

                                            #,                                       
                                            ###                                      
                                            ####                                     
                                            #####                                    
                                            ######                                   
                                           ########,                                 
                                     ,,################,,,,,                         
                               ,,#################################,,                 
                          ,,##########################################,,             
                       ,#########################################, ''#####,          
                    ,#############################################,,   '####,        
                  ,##################################################,,,,####,       
                ,###########''''           ''''###############################       
              ,#####''   ,,,,##########,,,,          '''####'''          '####       
            ,##' ,,,,###########################,,,                        '##       
           ' ,,###''''                  '''############,,,                           
         ,,##''                                '''############,,,,        ,,,,,,###''
      ,#''                                            '''#######################'''  
     '                                                          ''''####''''         
             ,#######,   #######,   ,#######,      ##                                
            ,#'     '#,  ##    ##  ,#'     '#,    #''#        ######   ,####,        
            ##       ##  ##   ,#'  ##            #'  '#       #        #'  '#        
            ##       ##  #######   ##           ,######,      #####,   #    #        
            '#,     ,#'  ##    ##  '#,     ,#' ,#      #,         ##   #,  ,#        
             '#######'   ##     ##  '#######'  #'      '#     #####' # '####'        



                  #######################################################
                  #                        -***-                        #
                  #          Department of theory and spectroscopy      #
                  #    Directorship and core code : Frank Neese         #
                  #        Max Planck Institute fuer Kohlenforschung    #
                  #                Kaiser Wilhelm Platz 1               #
                  #                 D-45470 Muelheim/Ruhr               #
                  #                      Germany                        #
                  #                                                     #
                  #                  All rights reserved                #
                  #                        -***-                        #
                  #######################################################


                         Program Version 5.0.3 -  RELEASE  -


 With contributions from (in alphabetic order):
   Daniel Aravena         : Magnetic Suceptibility
   Michael Atanasov       : Ab Initio Ligand Field Theory (pilot matlab implementation)
   Alexander A. Auer      : GIAO ZORA, VPT2 properties, NMR spectrum
   Ute Becker             : Parallelization
   Giovanni Bistoni       : ED, misc. LED, open-shell LED, HFLD
   Martin Brehm           : Molecular dynamics
   Dmytro Bykov           : SCF Hessian
   Vijay G. Chilkuri      : MRCI spin determinant printing, contributions to CSF-ICE
   Dipayan Datta          : RHF DLPNO-CCSD density
   Achintya Kumar Dutta   : EOM-CC, STEOM-CC
   Dmitry Ganyushin       : Spin-Orbit,Spin-Spin,Magnetic field MRCI
   Miquel Garcia          : C-PCM and meta-GGA Hessian, CC/C-PCM, Gaussian charge scheme
   Yang Guo               : DLPNO-NEVPT2, F12-NEVPT2, CIM, IAO-localization
   Andreas Hansen         : Spin unrestricted coupled pair/coupled cluster methods
   Benjamin Helmich-Paris : MC-RPA, TRAH-SCF, COSX integrals
   Lee Huntington         : MR-EOM, pCC
   Robert Izsak           : Overlap fitted RIJCOSX, COSX-SCS-MP3, EOM
   Marcus Kettner         : VPT2
   Christian Kollmar      : KDIIS, OOCD, Brueckner-CCSD(T), CCSD density, CASPT2, CASPT2-K
   Simone Kossmann        : Meta GGA functionals, TD-DFT gradient, OOMP2, MP2 Hessian
   Martin Krupicka        : Initial AUTO-CI
   Lucas Lang             : DCDCAS
   Marvin Lechner         : AUTO-CI (C++ implementation), FIC-MRCC
   Dagmar Lenk            : GEPOL surface, SMD
   Dimitrios Liakos       : Extrapolation schemes; Compound Job, initial MDCI parallelization
   Dimitrios Manganas     : Further ROCIS development; embedding schemes
   Dimitrios Pantazis     : SARC Basis sets
   Anastasios Papadopoulos: AUTO-CI, single reference methods and gradients
   Taras Petrenko         : DFT Hessian,TD-DFT gradient, ASA, ECA, R-Raman, ABS, FL, XAS/XES, NRVS
   Peter Pinski           : DLPNO-MP2, DLPNO-MP2 Gradient
   Christoph Reimann      : Effective Core Potentials
   Marius Retegan         : Local ZFS, SOC
   Christoph Riplinger    : Optimizer, TS searches, QM/MM, DLPNO-CCSD(T), (RO)-DLPNO pert. Triples
   Tobias Risthaus        : Range-separated hybrids, TD-DFT gradient, RPA, STAB
   Michael Roemelt        : Original ROCIS implementation
   Masaaki Saitow         : Open-shell DLPNO-CCSD energy and density
   Barbara Sandhoefer     : DKH picture change effects
   Avijit Sen             : IP-ROCIS
   Kantharuban Sivalingam : CASSCF convergence, NEVPT2, FIC-MRCI
   Bernardo de Souza      : ESD, SOC TD-DFT
   Georgi Stoychev        : AutoAux, RI-MP2 NMR, DLPNO-MP2 response
   Willem Van den Heuvel  : Paramagnetic NMR
   Boris Wezisla          : Elementary symmetry handling
   Frank Wennmohs         : Technical directorship


 We gratefully acknowledge several colleagues who have allowed us to
 interface, adapt or use parts of their codes:
   Stefan Grimme, W. Hujo, H. Kruse, P. Pracht,  : VdW corrections, initial TS optimization,
                  C. Bannwarth, S. Ehlert          DFT functionals, gCP, sTDA/sTD-DF
   Ed Valeev, F. Pavosevic, A. Kumar             : LibInt (2-el integral package), F12 methods
   Garnet Chan, S. Sharma, J. Yang, R. Olivares  : DMRG
   Ulf Ekstrom                                   : XCFun DFT Library
   Mihaly Kallay                                 : mrcc  (arbitrary order and MRCC methods)
   Jiri Pittner, Ondrej Demel                    : Mk-CCSD
   Frank Weinhold                                : gennbo (NPA and NBO analysis)
   Christopher J. Cramer and Donald G. Truhlar   : smd solvation model
   Lars Goerigk                                  : TD-DFT with DH, B97 family of functionals
   V. Asgeirsson, H. Jonsson                     : NEB implementation
   FAccTs GmbH                                   : IRC, NEB, NEB-TS, DLPNO-Multilevel, CI-OPT
                                                   MM, QMMM, 2- and 3-layer-ONIOM, Crystal-QMMM,
                                                   LR-CPCM, SF, NACMEs, symmetry and pop. for TD-DFT,
                                                   nearIR, NL-DFT gradient (VV10), updates on ESD,
                                                   ML-optimized integration grids
   S Lehtola, MJT Oliveira, MAL Marques          : LibXC Library
   Liviu Ungur et al                             : ANISO software


 Your calculation uses the libint2 library for the computation of 2-el integrals
 For citations please refer to: http://libint.valeyev.net

 Your ORCA version has been built with support for libXC version: 5.1.0
 For citations please refer to: https://tddft.org/programs/libxc/

 This ORCA versions uses:
   CBLAS   interface :  Fast vector & matrix operations
   LAPACKE interface :  Fast linear algebra routines
   SCALAPACK package :  Parallel linear algebra routines
   Shared memory     :  Shared parallel matrices
   BLAS/LAPACK       :  OpenBLAS 0.3.15  USE64BITINT DYNAMIC_ARCH NO_AFFINITY Haswell SINGLE_THREADED
        Core in use  :  Haswell
   Copyright (c) 2011-2014, The OpenBLAS Project


================================================================================

----- Orbital basis set information -----
Your calculation utilizes the basis: 6-31G*
   H-He, Li-Ne : W. J. Hehre, R. Ditchfield and J.A. Pople, J. Chem. Phys. 56, 2257 (1972).
                 Note: He and Ne are unpublished basis sets taken from the Gaussian program.
                 Note: Li and B from J. D. Dill and J. A. Pople, J. Chem. Phys. 62, 2921 (1975).
   Na - Ar     : M. M. Francl, W. J. Pietro, W. J. Hehre, J. S. Binkley, M. S. Gordon, 
                 D. J. DeFrees and J. A. Pople, J. Chem. Phys. 77, 3654 (1982).
   K - Zn      : V. A. Rassolov, J. A. Pople, M. A. Ratner, and T. L. Windus, J. Chem. Phys. 109, 1223 (1998).

================================================================================
                                        WARNINGS
                       Please study these warnings very carefully!
================================================================================


WARNING: Geometry Optimization
  ===> : Switching off AutoStart
         For restart on a previous wavefunction, please use MOREAD

INFO   : the flag for use of the SHARK integral package has been found!

================================================================================
                                       INPUT FILE
================================================================================
NAME = benzyne_hf
|  1> ! HF 6-31g* OPT ANFREQ NoFrozenCore
|  2> 
|  3> *xyz 0 1
|  4>  
|  5>  C     0.000000     0.000000     0.000000
|  6>  C     0.000000     0.000000     1.200000
|  7>  C     1.212436     0.000000     1.900000
|  8>  C     2.424871     0.000000     1.200000
|  9>  C     2.424871     0.000000    -0.200000
| 10>  C     1.212436     0.000000    -0.900000
| 11>  H     1.212436     0.000000     2.989000
| 12>  H     3.367973     0.000000     1.744500
| 13>  H     3.367973     0.000000    -0.744500
| 14>  H     1.212436     0.000000    -1.989000
| 15> *
| 16> 
| 17>                          ****END OF INPUT****
================================================================================

                       *****************************
                       * Geometry Optimization Run *
                       *****************************

Geometry optimization settings:
Update method            Update   .... BFGS
Choice of coordinates    CoordSys .... Z-matrix Internals
Initial Hessian          InHess   .... Almoef's Model

Convergence Tolerances:
Energy Change            TolE     ....  5.0000e-06 Eh
Max. Gradient            TolMAXG  ....  3.0000e-04 Eh/bohr
RMS Gradient             TolRMSG  ....  1.0000e-04 Eh/bohr
Max. Displacement        TolMAXD  ....  4.0000e-03 bohr
RMS Displacement         TolRMSD  ....  2.0000e-03 bohr
Strict Convergence                ....  False
------------------------------------------------------------------------------
                        ORCA OPTIMIZATION COORDINATE SETUP
------------------------------------------------------------------------------

The optimization will be done in new redundant internal coordinates
Making redundant internal coordinates   ...  (new redundants) done
Evaluating the initial hessian          ...  (Almloef) done
Evaluating the coordinates              ...  done
Calculating the B-matrix                .... done
Calculating the G-matrix                .... done
Diagonalizing the G-matrix              .... done
The first mode is                       ....   17
The number of degrees of freedom        ....   24

    -----------------------------------------------------------------
                    Redundant Internal Coordinates


    -----------------------------------------------------------------
         Definition                    Initial Value    Approx d2E/dq
    -----------------------------------------------------------------
      1. B(C   1,C   0)                  1.2000         1.255658   
      2. B(C   2,C   1)                  1.4000         0.602259   
      3. B(C   3,C   2)                  1.4000         0.602261   
      4. B(C   4,C   3)                  1.4000         0.602260   
      5. B(C   5,C   4)                  1.4000         0.602261   
      6. B(C   5,C   0)                  1.5100         0.402104   
      7. B(H   6,C   2)                  1.0890         0.361425   
      8. B(H   7,C   3)                  1.0890         0.361425   
      9. B(H   8,C   4)                  1.0890         0.361425   
     10. B(H   9,C   5)                  1.0890         0.361425   
     11. A(C   1,C   0,C   5)          126.5868         0.456034   
     12. A(C   0,C   1,C   2)          120.0000         0.491176   
     13. A(C   1,C   2,H   6)          120.0000         0.351399   
     14. A(C   1,C   2,C   3)          120.0000         0.429561   
     15. A(C   3,C   2,H   6)          120.0000         0.351399   
     16. A(C   2,C   3,C   4)          120.0000         0.429561   
     17. A(C   4,C   3,H   7)          120.0000         0.351399   
     18. A(C   2,C   3,H   7)          120.0000         0.351399   
     19. A(C   5,C   4,H   8)          120.0000         0.351399   
     20. A(C   3,C   4,H   8)          120.0000         0.351399   
     21. A(C   3,C   4,C   5)          120.0000         0.429561   
     22. A(C   4,C   5,H   9)          120.0000         0.351399   
     23. A(C   0,C   5,H   9)          126.5868         0.328470   
     24. A(C   0,C   5,C   4)          113.4132         0.399803   
     25. D(C   2,C   1,C   0,C   5)      0.0000         0.103022   
     26. D(H   6,C   2,C   1,C   0)    180.0000         0.022694   
     27. D(C   3,C   2,C   1,C   0)      0.0000         0.022694   
     28. D(H   7,C   3,C   2,C   1)    180.0000         0.025015   
     29. D(C   4,C   3,C   2,H   6)    180.0000         0.025015   
     30. D(H   7,C   3,C   2,H   6)      0.0000         0.025015   
     31. D(C   4,C   3,C   2,C   1)      0.0000         0.025015   
     32. D(H   8,C   4,C   3,C   2)    180.0000         0.025015   
     33. D(C   5,C   4,C   3,H   7)    180.0000         0.025015   
     34. D(H   8,C   4,C   3,H   7)      0.0000         0.025015   
     35. D(C   5,C   4,C   3,C   2)      0.0000         0.025015   
     36. D(C   0,C   5,C   4,C   3)      0.0000         0.025015   
     37. D(H   9,C   5,C   0,C   1)    180.0000         0.010163   
     38. D(C   0,C   5,C   4,H   8)    180.0000         0.025015   
     39. D(C   4,C   5,C   0,C   1)      0.0000         0.010163   
     40. D(H   9,C   5,C   4,H   8)      0.0000         0.025015   
     41. D(H   9,C   5,C   4,C   3)    180.0000         0.025015   
    -----------------------------------------------------------------

Number of atoms                         .... 10
Number of degrees of freedom            .... 41

         *************************************************************
         *                GEOMETRY OPTIMIZATION CYCLE   1            *
         *************************************************************
---------------------------------
CARTESIAN COORDINATES (ANGSTROEM)
---------------------------------
  C      0.000000    0.000000    0.000000
  C      0.000000    0.000000    1.200000
  C      1.212436    0.000000    1.900000
  C      2.424871    0.000000    1.200000
  C      2.424871    0.000000   -0.200000
  C      1.212436    0.000000   -0.900000
  H      1.212436    0.000000    2.989000
  H      3.367973    0.000000    1.744500
  H      3.367973    0.000000   -0.744500
  H      1.212436    0.000000   -1.989000

----------------------------
CARTESIAN COORDINATES (A.U.)
----------------------------
  NO LB      ZA    FRAG     MASS         X           Y           Z
   0 C     6.0000    0    12.011    0.000000    0.000000    0.000000
   1 C     6.0000    0    12.011    0.000000    0.000000    2.267671
   2 C     6.0000    0    12.011    2.291172    0.000000    3.590480
   3 C     6.0000    0    12.011    4.582342    0.000000    2.267671
   4 C     6.0000    0    12.011    4.582342    0.000000   -0.377945
   5 C     6.0000    0    12.011    2.291172    0.000000   -1.700754
   6 H     1.0000    0     1.008    2.291172    0.000000    5.648391
   7 H     1.0000    0     1.008    6.364547    0.000000    3.296627
   8 H     1.0000    0     1.008    6.364547    0.000000   -1.406901
   9 H     1.0000    0     1.008    2.291172    0.000000   -3.758665

--------------------------------
INTERNAL COORDINATES (ANGSTROEM)
--------------------------------
 C      0   0   0     0.000000000000     0.00000000     0.00000000
 C      1   0   0     1.200000000000     0.00000000     0.00000000
 C      2   1   0     1.400000376463   119.99999110     0.00000000
 C      3   2   1     1.399999510437   119.99999733     0.00000000
 C      4   3   2     1.400000000000   120.00001157     0.00000000
 C      5   4   3     1.399999510437   120.00001157     0.00000000
 H      3   2   1     1.089000000000   119.99999110   180.00000000
 H      4   3   2     1.089000290360   119.99999725   180.00000000
 H      5   4   3     1.089000290360   119.99999118   180.00000085
 H      6   5   4     1.089000000000   120.00001157   180.00000000

---------------------------
INTERNAL COORDINATES (A.U.)
---------------------------
 C      0   0   0     0.000000000000     0.00000000     0.00000000
 C      1   0   0     2.267671360706     0.00000000     0.00000000
 C      2   1   0     2.645617298901   119.99999110     0.00000000
 C      3   2   1     2.645615662351   119.99999733     0.00000000
 C      4   3   2     2.645616587490   120.00001157     0.00000000
 C      5   4   3     2.645615662351   120.00001157     0.00000000
 H      3   2   1     2.057911759840   119.99999110   180.00000000
 H      4   3   2     2.057912308541   119.99999725   180.00000000
 H      5   4   3     2.057912308541   119.99999118   180.00000085
 H      6   5   4     2.057911759840   120.00001157   180.00000000

---------------------
BASIS SET INFORMATION
---------------------
There are 2 groups of distinct atoms

 Group   1 Type C   : 10s4p1d contracted to 3s2p1d pattern {631/31/1}
 Group   2 Type H   : 4s contracted to 2s pattern {31}

Atom   0C    basis set group =>   1
Atom   1C    basis set group =>   1
Atom   2C    basis set group =>   1
Atom   3C    basis set group =>   1
Atom   4C    basis set group =>   1
Atom   5C    basis set group =>   1
Atom   6H    basis set group =>   2
Atom   7H    basis set group =>   2
Atom   8H    basis set group =>   2
Atom   9H    basis set group =>   2
------------------------------------------------------------------------------
                           ORCA GTO INTEGRAL CALCULATION
------------------------------------------------------------------------------
------------------------------------------------------------------------------
                   ___                                                        
                  /   \      - P O W E R E D   B Y -                         
                 /     \                                                     
                 |  |  |   _    _      __       _____    __    __             
                 |  |  |  | |  | |    /  \     |  _  \  |  |  /  |          
                  \  \/   | |  | |   /    \    | | | |  |  | /  /          
                 / \  \   | |__| |  /  /\  \   | |_| |  |  |/  /          
                |  |  |   |  __  | /  /__\  \  |    /   |      \           
                |  |  |   | |  | | |   __   |  |    \   |  |\   \          
                \     /   | |  | | |  |  |  |  | |\  \  |  | \   \       
                 \___/    |_|  |_| |__|  |__|  |_| \__\ |__|  \__/        
                                                                              
                      - O R C A' S   B I G   F R I E N D -                    
                                      &                                       
                       - I N T E G R A L  F E E D E R -                       
                                                                              
 v1 FN, 2020, v2 2021                                                         
------------------------------------------------------------------------------


Reading SHARK input file benzyne_hf.SHARKINP.tmp ... ok
----------------------
SHARK INTEGRAL PACKAGE
----------------------

Number of atoms                             ...     10
Number of basis functions                   ...     92
Number of shells                            ...     44
Maximum angular momentum                    ...      2
Integral batch strategy                     ... SHARK/LIBINT Hybrid
RI-J (if used) integral strategy            ... SPLIT-RIJ (Revised 2003 algorithm where possible)
Printlevel                                  ...      1
Contraction scheme used                     ... SEGMENTED contraction
Coulomb Range Separation                    ... NOT USED
Exchange Range Separation                   ... NOT USED
Finite Nucleus Model                        ... NOT USED
Auxiliary Coulomb fitting basis             ... NOT available
Auxiliary J/K fitting basis                 ... NOT available
Auxiliary Correlation fitting basis         ... NOT available
Auxiliary 'external' fitting basis          ... NOT available
Integral threshold                          ...     2.500000e-11
Primitive cut-off                           ...     2.500000e-12
Primitive pair pre-selection threshold      ...     2.500000e-12

Calculating pre-screening integrals         ... done (  0.1 sec) Dimension = 44
Organizing shell pair data                  ... done (  0.0 sec)
Shell pair information
Total number of shell pairs                 ...       990
Shell pairs after pre-screening             ...       976
Total number of primitive shell pairs       ...      5809
Primitive shell pairs kept                  ...      4224
          la=0 lb=0:    337 shell pairs
          la=1 lb=0:    312 shell pairs
          la=1 lb=1:     78 shell pairs
          la=2 lb=0:    156 shell pairs
          la=2 lb=1:     72 shell pairs
          la=2 lb=2:     21 shell pairs

Calculating one electron integrals          ... done (  0.0 sec)
Calculating Nuclear repulsion               ... done (  0.0 sec) ENN=    186.351047638348 Eh

SHARK setup successfully completed in   0.2 seconds

Maximum memory used throughout the entire GTOINT-calculation: 10.2 MB
-------------------------------------------------------------------------------
                                 ORCA SCF
-------------------------------------------------------------------------------

------------
SCF SETTINGS
------------
Hamiltonian:
 Ab initio Hamiltonian  Method          .... Hartree-Fock(GTOs)


General Settings:
 Integral files         IntName         .... benzyne_hf
 Hartree-Fock type      HFTyp           .... RHF
 Total Charge           Charge          ....    0
 Multiplicity           Mult            ....    1
 Number of Electrons    NEL             ....   40
 Basis Dimension        Dim             ....   92
 Nuclear Repulsion      ENuc            ....    186.3510476383 Eh

Convergence Acceleration:
 DIIS                   CNVDIIS         .... on
   Start iteration      DIISMaxIt       ....    12
   Startup error        DIISStart       ....  0.200000
   # of expansion vecs  DIISMaxEq       ....     5
   Bias factor          DIISBfac        ....   1.050
   Max. coefficient     DIISMaxC        ....  10.000
 Trust-Rad. Augm. Hess. CNVTRAH         .... auto
   Auto Start mean grad. ratio tolernc. ....  1.125000
   Auto Start start iteration           ....    20
   Auto Start num. interpolation iter.  ....    10
   Max. Number of Micro iterations      ....    16
   Max. Number of Macro iterations      .... Maxiter - #DIIS iter
   Number of Davidson start vectors     ....     2
   Converg. threshold I  (grad. norm)   ....   1.000e-05
   Converg. threshold II (energy diff.) ....   1.000e-08
   Grad. Scal. Fac. for Micro threshold ....   0.100
   Minimum threshold for Micro iter.    ....   0.010
   NR start threshold (gradient norm)   ....   0.001
   Initial trust radius                 ....   0.400
   Minimum AH scaling param. (alpha)    ....   1.000
   Maximum AH scaling param. (alpha)    .... 1000.000
   Orbital update algorithm             .... Taylor
   White noise on init. David. guess    .... on
   Maximum white noise                  ....   0.010
   Quad. conv. algorithm                .... NR
 SOSCF                  CNVSOSCF        .... on
   Start iteration      SOSCFMaxIt      ....   150
   Startup grad/error   SOSCFStart      ....  0.003300
 Level Shifting         CNVShift        .... on
   Level shift para.    LevelShift      ....    0.2500
   Turn off err/grad.   ShiftErr        ....    0.0010
 Zerner damping         CNVZerner       .... off
 Static damping         CNVDamp         .... on
   Fraction old density DampFac         ....    0.7000
   Max. Damping (<1)    DampMax         ....    0.9800
   Min. Damping (>=0)   DampMin         ....    0.0000
   Turn off err/grad.   DampErr         ....    0.1000
 Fernandez-Rico         CNVRico         .... off

SCF Procedure:
 Maximum # iterations   MaxIter         ....   125
 SCF integral mode      SCFMode         .... Direct
   Integral package                     .... SHARK and LIBINT hybrid scheme
 Reset frequency        DirectResetFreq ....    20
 Integral Threshold     Thresh          ....  2.500e-11 Eh
 Primitive CutOff       TCut            ....  2.500e-12 Eh

Convergence Tolerance:
 Convergence Check Mode ConvCheckMode   .... Total+1el-Energy
 Convergence forced     ConvForced      .... 0
 Energy Change          TolE            ....  1.000e-08 Eh
 1-El. energy change                    ....  1.000e-05 Eh
 Orbital Gradient       TolG            ....  1.000e-05
 Orbital Rotation angle TolX            ....  1.000e-05
 DIIS Error             TolErr          ....  5.000e-07


Diagonalization of the overlap matrix:
Smallest eigenvalue                        ... 8.047e-04
Time for diagonalization                   ...    0.002 sec
Threshold for overlap eigenvalues          ... 1.000e-08
Number of eigenvalues below threshold      ... 0
Time for construction of square roots      ...    0.000 sec
Total time needed                          ...    0.002 sec

Time for model grid setup =    0.130 sec

------------------------------
INITIAL GUESS: MODEL POTENTIAL
------------------------------
Loading Hartree-Fock densities                     ... done
Calculating cut-offs                               ... done
Initializing the effective Hamiltonian             ... done
Setting up the integral package (SHARK)            ... done
Starting the Coulomb interaction                   ... done (   0.1 sec)
Reading the grid                                   ... done
Mapping shells                                     ... done
Starting the XC term evaluation                    ... done (   0.1 sec)
Transforming the Hamiltonian                       ... done (   0.0 sec)
Diagonalizing the Hamiltonian                      ... done (   0.0 sec)
Back transforming the eigenvectors                 ... done (   0.0 sec)
Now organizing SCF variables                       ... done
                      ------------------
                      INITIAL GUESS DONE (   0.3 sec)
                      ------------------
--------------
SCF ITERATIONS
--------------
ITER       Energy         Delta-E        Max-DP      RMS-DP      [F,P]     Damp
               ***  Starting incremental Fock matrix formation  ***
  0   -229.1613788155   0.000000000000 0.03707480  0.00260231  0.1462707 0.7000
  1   -229.2298981504  -0.068519334935 0.02993816  0.00209601  0.1017076 0.7000
                               ***Turning on DIIS***
  2   -229.2730957340  -0.043197583587 0.06688521  0.00477122  0.0659629 0.0000
  3   -228.9771363974   0.295959336551 0.01317727  0.00095614  0.0229913 0.0000
  4   -229.3620321720  -0.384895774530 0.00485973  0.00033525  0.0047207 0.0000
                      *** Initiating the SOSCF procedure ***
                           *** Shutting down DIIS ***
                      *** Re-Reading the Fockian *** 
                      *** Removing any level shift *** 
ITER      Energy       Delta-E        Grad      Rot      Max-DP    RMS-DP
  5   -229.36861685  -0.0065846799  0.001753  0.001753  0.002286  0.000144
               *** Restarting incremental Fock matrix formation ***
  6   -229.36354803   0.0050688215  0.000638  0.001309  0.001275  0.000080
  7   -229.36356539  -0.0000173562  0.000748  0.002774  0.001541  0.000095
  8   -229.36357359  -0.0000082034  0.000191  0.000240  0.000361  0.000026
  9   -229.36357480  -0.0000012088  0.000082  0.000297  0.000273  0.000016
 10   -229.36357511  -0.0000003105  0.000059  0.000203  0.000128  0.000005
 11   -229.36357516  -0.0000000481  0.000022  0.000094  0.000057  0.000003
 12   -229.36357517  -0.0000000109  0.000010  0.000028  0.000032  0.000002
                 **** Energy Check signals convergence ****
              ***Rediagonalizing the Fockian in SOSCF/NRSCF***

               *****************************************************
               *                     SUCCESS                       *
               *           SCF CONVERGED AFTER  13 CYCLES          *
               *****************************************************


----------------
TOTAL SCF ENERGY
----------------

Total Energy       :         -229.36357517 Eh           -6241.30018 eV

Components:
Nuclear Repulsion  :          186.35104764 Eh            5070.86980 eV
Electronic Energy  :         -415.71462281 Eh          -11312.16999 eV
One Electron Energy:         -677.49631777 Eh          -18435.61205 eV
Two Electron Energy:          261.78169496 Eh            7123.44207 eV

Virial components:
Potential Energy   :         -458.48813644 Eh          -12476.09646 eV
Kinetic Energy     :          229.12456127 Eh            6234.79628 eV
Virial Ratio       :            2.00104316


---------------
SCF CONVERGENCE
---------------

  Last Energy change         ...   -2.7197e-09  Tolerance :   1.0000e-08
  Last MAX-Density change    ...    1.3088e-05  Tolerance :   1.0000e-07
  Last RMS-Density change    ...    6.5519e-07  Tolerance :   5.0000e-09
  Last Orbital Gradient      ...    4.6647e-06  Tolerance :   1.0000e-05
  Last Orbital Rotation      ...    1.6371e-05  Tolerance :   1.0000e-05

             **** THE GBW FILE WAS UPDATED (benzyne_hf.gbw) ****
             **** DENSITY benzyne_hf.scfp WAS UPDATED ****
             **** ENERGY FILE WAS UPDATED (benzyne_hf.en.tmp) ****
             **** THE GBW FILE WAS UPDATED (benzyne_hf.gbw) ****
             **** DENSITY benzyne_hf.scfp WAS UPDATED ****
----------------
ORBITAL ENERGIES
----------------

  NO   OCC          E(Eh)            E(eV) 
   0   2.0000     -11.285228      -307.0867 
   1   2.0000     -11.269461      -306.6576 
   2   2.0000     -11.254615      -306.2536 
   3   2.0000     -11.253534      -306.2242 
   4   2.0000     -11.247027      -306.0472 
   5   2.0000     -11.227255      -305.5091 
   6   2.0000      -1.161589       -31.6084 
   7   2.0000      -1.033050       -28.1107 
   8   2.0000      -1.001379       -27.2489 
   9   2.0000      -0.841020       -22.8853 
  10   2.0000      -0.778975       -21.1970 
  11   2.0000      -0.687942       -18.7198 
  12   2.0000      -0.621937       -16.9238 
  13   2.0000      -0.615585       -16.7509 
  14   2.0000      -0.556583       -15.1454 
  15   2.0000      -0.535979       -14.5847 
  16   2.0000      -0.516190       -14.0462 
  17   2.0000      -0.379427       -10.3247 
  18   2.0000      -0.365929        -9.9574 
  19   2.0000      -0.333757        -9.0820 
  20   0.0000       0.070930         1.9301 
  21   0.0000       0.115172         3.1340 
  22   0.0000       0.169788         4.6202 
  23   0.0000       0.242937         6.6106 
  24   0.0000       0.287895         7.8340 
  25   0.0000       0.308231         8.3874 
  26   0.0000       0.323650         8.8070 
  27   0.0000       0.377200        10.2641 
  28   0.0000       0.432043        11.7565 
  29   0.0000       0.452320        12.3083 
  30   0.0000       0.496389        13.5074 
  31   0.0000       0.549949        14.9649 
  32   0.0000       0.653023        17.7697 
  33   0.0000       0.667480        18.1631 
  34   0.0000       0.717856        19.5338 
  35   0.0000       0.734840        19.9960 
  36   0.0000       0.761218        20.7138 
  37   0.0000       0.787206        21.4210 
  38   0.0000       0.806676        21.9508 
  39   0.0000       0.821528        22.3549 
  40   0.0000       0.823122        22.3983 
  41   0.0000       0.838286        22.8109 
  42   0.0000       0.843397        22.9500 
  43   0.0000       0.889386        24.2014 
  44   0.0000       0.917536        24.9674 
  45   0.0000       0.917654        24.9706 
  46   0.0000       0.991597        26.9827 
  47   0.0000       0.998841        27.1799 
  48   0.0000       1.002727        27.2856 
  49   0.0000       1.101259        29.9668 
  50   0.0000       1.104202        30.0469 
  51   0.0000       1.129581        30.7375 
  52   0.0000       1.164558        31.6892 
  53   0.0000       1.180478        32.1224 
  54   0.0000       1.195878        32.5415 
  55   0.0000       1.276631        34.7389 
  56   0.0000       1.297271        35.3005 
  57   0.0000       1.376240        37.4494 
  58   0.0000       1.424765        38.7698 
  59   0.0000       1.513118        41.1740 
  60   0.0000       1.563015        42.5318 
  61   0.0000       1.592325        43.3294 
  62   0.0000       1.646744        44.8102 
  63   0.0000       1.744641        47.4741 
  64   0.0000       1.767428        48.0942 
  65   0.0000       1.798793        48.9476 
  66   0.0000       1.845761        50.2257 
  67   0.0000       1.902550        51.7710 
  68   0.0000       1.984586        54.0033 
  69   0.0000       2.003906        54.5291 
  70   0.0000       2.129152        57.9372 
  71   0.0000       2.202664        59.9375 
  72   0.0000       2.262800        61.5739 
  73   0.0000       2.352978        64.0278 
  74   0.0000       2.397425        65.2373 
  75   0.0000       2.398985        65.2797 
  76   0.0000       2.456087        66.8335 
  77   0.0000       2.490691        67.7751 
  78   0.0000       2.561181        69.6933 
  79   0.0000       2.566455        69.8368 
  80   0.0000       2.663824        72.4863 
  81   0.0000       2.736115        74.4535 
  82   0.0000       2.786044        75.8121 
  83   0.0000       2.832598        77.0789 
  84   0.0000       2.970055        80.8193 
  85   0.0000       3.014328        82.0240 
  86   0.0000       3.039084        82.6977 
  87   0.0000       3.048739        82.9604 
  88   0.0000       3.132628        85.2431 
  89   0.0000       3.204100        87.1880 
  90   0.0000       3.477140        94.6178 
  91   0.0000       3.757461       102.2457 

                    ********************************
                    * MULLIKEN POPULATION ANALYSIS *
                    ********************************

-----------------------
MULLIKEN ATOMIC CHARGES
-----------------------
   0 C :   -0.019183
   1 C :   -0.031438
   2 C :   -0.206560
   3 C :   -0.198046
   4 C :   -0.185949
   5 C :   -0.214669
   6 H :    0.199445
   7 H :    0.215550
   8 H :    0.220263
   9 H :    0.220587
Sum of atomic charges:   -0.0000000

--------------------------------
MULLIKEN REDUCED ORBITAL CHARGES
--------------------------------
  0 C s       :     3.182135  s :     3.182135
      pz      :     0.971132  p :     2.798074
      px      :     0.844958
      py      :     0.981985
      dz2     :     0.009493  d :     0.038974
      dxz     :     0.014065
      dyz     :     0.010498
      dx2y2   :     0.002447
      dxy     :     0.002472
  1 C s       :     3.143042  s :     3.143042
      pz      :     0.974493  p :     2.844875
      px      :     0.935353
      py      :     0.935030
      dz2     :     0.011463  d :     0.043521
      dxz     :     0.013688
      dyz     :     0.010468
      dx2y2   :     0.003814
      dxy     :     0.004088
  2 C s       :     3.196313  s :     3.196313
      pz      :     1.075042  p :     2.957762
      px      :     0.891531
      py      :     0.991189
      dz2     :     0.019564  d :     0.052486
      dxz     :     0.014242
      dyz     :     0.003071
      dx2y2   :     0.008171
      dxy     :     0.007438
  3 C s       :     3.174671  s :     3.174671
      pz      :     0.942970  p :     2.977986
      px      :     1.030188
      py      :     1.004828
      dz2     :     0.012123  d :     0.045389
      dxz     :     0.015910
      dyz     :     0.005766
      dx2y2   :     0.007461
      dxy     :     0.004129
  4 C s       :     3.177000  s :     3.177000
      pz      :     0.959807  p :     2.962923
      px      :     1.021341
      py      :     0.981775
      dz2     :     0.011776  d :     0.046026
      dxz     :     0.016019
      dyz     :     0.006300
      dx2y2   :     0.007407
      dxy     :     0.004524
  5 C s       :     3.215217  s :     3.215217
      pz      :     1.062192  p :     2.953510
      px      :     0.853965
      py      :     1.037353
      dz2     :     0.016348  d :     0.045943
      dxz     :     0.013621
      dyz     :     0.002855
      dx2y2   :     0.006886
      dxy     :     0.006233
  6 H s       :     0.800555  s :     0.800555
  7 H s       :     0.784450  s :     0.784450
  8 H s       :     0.779737  s :     0.779737
  9 H s       :     0.779413  s :     0.779413


                     *******************************
                     * LOEWDIN POPULATION ANALYSIS *
                     *******************************

----------------------
LOEWDIN ATOMIC CHARGES
----------------------
   0 C :   -0.008278
   1 C :   -0.084156
   2 C :   -0.097020
   3 C :   -0.144774
   4 C :   -0.129538
   5 C :   -0.117623
   6 H :    0.135871
   7 H :    0.146785
   8 H :    0.149427
   9 H :    0.149306

-------------------------------
LOEWDIN REDUCED ORBITAL CHARGES
-------------------------------
  0 C s       :     2.970507  s :     2.970507
      pz      :     1.123990  p :     2.961028
      px      :     0.864272
      py      :     0.972766
      dz2     :     0.024643  d :     0.076743
      dxz     :     0.024110
      dyz     :     0.019240
      dx2y2   :     0.004714
      dxy     :     0.004035
  1 C s       :     2.953085  s :     2.953085
      pz      :     1.144935  p :     3.042843
      px      :     0.964348
      py      :     0.933560
      dz2     :     0.031051  d :     0.088228
      dxz     :     0.022316
      dyz     :     0.019873
      dx2y2   :     0.008098
      dxy     :     0.006890
  2 C s       :     2.915176  s :     2.915176
      pz      :     1.077415  p :     3.078074
      px      :     1.022505
      py      :     0.978154
      dz2     :     0.036552  d :     0.103770
      dxz     :     0.031651
      dyz     :     0.003911
      dx2y2   :     0.017320
      dxy     :     0.014336
  3 C s       :     2.921382  s :     2.921382
      pz      :     1.063335  p :     3.131917
      px      :     1.072767
      py      :     0.995815
      dz2     :     0.026681  d :     0.091475
      dxz     :     0.034152
      dyz     :     0.011539
      dx2y2   :     0.012672
      dxy     :     0.006432
  4 C s       :     2.921827  s :     2.921827
      pz      :     1.071749  p :     3.115406
      px      :     1.070986
      py      :     0.972670
      dz2     :     0.025499  d :     0.092306
      dxz     :     0.034397
      dyz     :     0.012553
      dx2y2   :     0.012708
      dxy     :     0.007149
  5 C s       :     2.940678  s :     2.940678
      pz      :     1.076706  p :     3.089847
      px      :     0.987009
      py      :     1.026131
      dz2     :     0.029126  d :     0.087097
      dxz     :     0.029228
      dyz     :     0.003639
      dx2y2   :     0.013798
      dxy     :     0.011307
  6 H s       :     0.864129  s :     0.864129
  7 H s       :     0.853215  s :     0.853215
  8 H s       :     0.850573  s :     0.850573
  9 H s       :     0.850694  s :     0.850694


                      *****************************
                      * MAYER POPULATION ANALYSIS *
                      *****************************

  NA   - Mulliken gross atomic population
  ZA   - Total nuclear charge
  QA   - Mulliken gross atomic charge
  VA   - Mayer's total valence
  BVA  - Mayer's bonded valence
  FA   - Mayer's free valence

  ATOM       NA         ZA         QA         VA         BVA        FA
  0 C      6.0192     6.0000    -0.0192     3.8869     3.8869     0.0000
  1 C      6.0314     6.0000    -0.0314     3.8859     3.8859    -0.0000
  2 C      6.2066     6.0000    -0.2066     3.9539     3.9539    -0.0000
  3 C      6.1980     6.0000    -0.1980     3.8672     3.8672     0.0000
  4 C      6.1859     6.0000    -0.1859     3.8653     3.8653    -0.0000
  5 C      6.2147     6.0000    -0.2147     3.8967     3.8967    -0.0000
  6 H      0.8006     1.0000     0.1994     0.9207     0.9207    -0.0000
  7 H      0.7844     1.0000     0.2156     0.9237     0.9237    -0.0000
  8 H      0.7797     1.0000     0.2203     0.9220     0.9220    -0.0000
  9 H      0.7794     1.0000     0.2206     0.9200     0.9200    -0.0000

  Mayer bond orders larger than 0.100000
B(  0-C ,  1-C ) :   2.4980 B(  0-C ,  5-C ) :   1.2613 B(  1-C ,  2-C ) :   1.3025 
B(  2-C ,  3-C ) :   1.5727 B(  2-C ,  5-C ) :   0.1205 B(  2-C ,  6-H ) :   0.9351 
B(  3-C ,  4-C ) :   1.3231 B(  3-C ,  7-H ) :   0.9336 B(  4-C ,  5-C ) :   1.5790 
B(  4-C ,  8-H ) :   0.9304 B(  5-C ,  9-H ) :   0.9297 

-------
TIMINGS
-------

Total SCF time: 0 days 0 hours 0 min 14 sec 

Total time                  ....      14.394 sec
Sum of individual times     ....      14.240 sec  ( 98.9%)

Fock matrix formation       ....      13.936 sec  ( 96.8%)
Diagonalization             ....       0.012 sec  (  0.1%)
Density matrix formation    ....       0.001 sec  (  0.0%)
Population analysis         ....       0.002 sec  (  0.0%)
Initial guess               ....       0.151 sec  (  1.0%)
Orbital Transformation      ....       0.000 sec  (  0.0%)
Orbital Orthonormalization  ....       0.000 sec  (  0.0%)
DIIS solution               ....       0.002 sec  (  0.0%)
SOSCF solution              ....       0.006 sec  (  0.0%)

Maximum memory used throughout the entire SCF-calculation: 233.3 MB

-------------------------   --------------------
FINAL SINGLE POINT ENERGY      -229.363575171028
-------------------------   --------------------

------------------------------------------------------------------------------
                         ORCA SCF GRADIENT CALCULATION
------------------------------------------------------------------------------

Gradient of the Hartree-Fock SCF energy:
Hartree-Fock type                ... RHF
Number of operators              ...    1
Number of atoms                  ...   10
Basis set dimensions             ...   92
Integral neglect threshold       ... 2.5e-11
Integral primitive cutoff        ... 2.5e-12
SHARK Integral package           ... ON

Nuc. rep. gradient       (SHARK) ... done (  0.0 sec)
HCore & Overlap gradient (SHARK) ... done (  0.1 sec)
Two-Electron gradient    (SHARK) ... done (  5.2 sec)

------------------
CARTESIAN GRADIENT
------------------

   1   C   :   -0.071940139   -0.000000000    0.096392717
   2   C   :   -0.019081416    0.000000000   -0.026763913
   3   C   :   -0.017250465    0.000000000   -0.043335814
   4   C   :    0.022617685   -0.000000000   -0.019460560
   5   C   :    0.028657563   -0.000000000    0.016911333
   6   C   :    0.033300938    0.000000000   -0.019971091
   7   H   :   -0.005797843    0.000000000    0.008808351
   8   H   :    0.010894504   -0.000000000    0.003195858
   9   H   :    0.011002516    0.000000000   -0.002430057
  10   H   :    0.007596656   -0.000000000   -0.013346824

Difference to translation invariance:
           :    0.0000000000    0.0000000000   -0.0000000000

Difference to rotation invariance:
           :   -0.0000000000    0.0000007535   -0.0000000000

Norm of the cartesian gradient     ...    0.1477536822
RMS gradient                       ...    0.0269760082
MAX gradient                       ...    0.0963927169

-------
TIMINGS
-------

Total SCF gradient time            ...        5.362 sec

One electron gradient       ....       0.084 sec  (  1.6%)
Two electron gradient       ....       5.218 sec  ( 97.3%)

Maximum memory used throughout the entire SCFGRAD-calculation: 21.8 MB
------------------------------------------------------------------------------
                         ORCA GEOMETRY RELAXATION STEP
------------------------------------------------------------------------------

Reading the OPT-File                    .... done
Getting information on internals        .... done
Copying old internal coords+grads       .... done
Making the new internal coordinates     .... (new redundants).... done
Validating the new internal coordinates .... (new redundants).... done
Calculating the B-matrix                .... done
Calculating the G,G- and P matrices     .... done
Transforming gradient to internals      .... done
Projecting the internal gradient        .... done
Number of atoms                         ....  10
Number of internal coordinates          ....  41
Current Energy                          ....  -229.363575171 Eh
Current gradient norm                   ....     0.147753682 Eh/bohr
Maximum allowed component of the step   ....  0.300
Current trust radius                    ....  0.300
Evaluating the initial hessian          ....  (Almloef) done
Projecting the Hessian                  .... done
Forming the augmented Hessian           .... done
Diagonalizing the augmented Hessian     .... done
Last element of RFO vector              ....  0.966957084
Lowest eigenvalues of augmented Hessian:
 -0.032891681  0.018713995  0.021319839  0.024156040  0.024859337
Length of the computed step             ....  0.263651000
The final length of the internal step   ....  0.263651000
Converting the step to cartesian space:
 Initial RMS(Int)=    0.0411753685
Transforming coordinates:
 Iter   0:  RMS(Cart)=    0.0573018296 RMS(Int)=    2.1945707586
 Iter   1:  RMS(Cart)=    0.0010791155 RMS(Int)=    0.0009114650
 Iter   2:  RMS(Cart)=    0.0000416093 RMS(Int)=    0.0000322273
 Iter   3:  RMS(Cart)=    0.0000019983 RMS(Int)=    0.0000018453
 Iter   4:  RMS(Cart)=    0.0000000838 RMS(Int)=    0.0000000692
done
Storing new coordinates                 .... done

                                .--------------------.
          ----------------------|Geometry convergence|-------------------------
          Item                value                   Tolerance       Converged
          ---------------------------------------------------------------------
          RMS gradient        0.0203227224            0.0001000000      NO
          MAX gradient        0.0856159744            0.0003000000      NO
          RMS step            0.0411753685            0.0020000000      NO
          MAX step            0.1931015710            0.0040000000      NO
          ........................................................
          Max(Bonds)      0.1022      Max(Angles)    5.22
          Max(Dihed)        0.00      Max(Improp)    0.00
          ---------------------------------------------------------------------

The optimization has not yet converged - more geometry cycles are needed


    ---------------------------------------------------------------------------
                         Redundant Internal Coordinates
                            (Angstroem and degrees)

        Definition                    Value    dE/dq     Step     New-Value
    ----------------------------------------------------------------------------
     1. B(C   1,C   0)                1.2000 -0.053304  0.0229    1.2229   
     2. B(C   2,C   1)                1.4000  0.000916  0.0002    1.4002   
     3. B(C   3,C   2)                1.4000  0.030153 -0.0263    1.3737   
     4. B(C   4,C   3)                1.4000 -0.024252  0.0181    1.4181   
     5. B(C   5,C   4)                1.4000  0.024338 -0.0212    1.3788   
     6. B(C   5,C   0)                1.5100  0.085616 -0.1022    1.4078   
     7. B(H   6,C   2)                1.0890  0.008808 -0.0118    1.0772   
     8. B(H   7,C   3)                1.0890  0.011033 -0.0148    1.0742   
     9. B(H   8,C   4)                1.0890  0.010743 -0.0144    1.0746   
    10. B(H   9,C   5)                1.0890  0.013347 -0.0179    1.0711   
    11. A(C   1,C   0,C   5)          126.59 -0.010613    2.00    128.59   
    12. A(C   0,C   1,C   2)          120.00 -0.016738    2.49    122.49   
    13. A(C   1,C   2,H   6)          120.00 -0.025890    3.50    123.50   
    14. A(C   1,C   2,C   3)          120.00  0.039849   -5.22    114.78   
    15. A(C   3,C   2,H   6)          120.00 -0.013959    1.72    121.72   
    16. A(C   2,C   3,C   4)          120.00 -0.009261    0.75    120.75   
    17. A(C   4,C   3,H   7)          120.00  0.001874    0.04    120.04   
    18. A(C   2,C   3,H   7)          120.00  0.007388   -0.78    119.22   
    19. A(C   5,C   4,H   8)          120.00  0.013589   -1.63    118.37   
    20. A(C   3,C   4,H   8)          120.00  0.006599   -0.59    119.41   
    21. A(C   3,C   4,C   5)          120.00 -0.020188    2.22    122.22   
    22. A(C   4,C   5,H   9)          120.00 -0.016293    2.29    122.29   
    23. A(C   0,C   5,H   9)          126.59 -0.000659   -0.05    126.54   
    24. A(C   0,C   5,C   4)          113.41  0.016952   -2.24    111.17   
    25. D(C   2,C   1,C   0,C   5)      0.00 -0.000000    0.00      0.00   
    26. D(H   6,C   2,C   1,C   0)    180.00 -0.000000    0.00    180.00   
    27. D(C   3,C   2,C   1,C   0)      0.00 -0.000000    0.00      0.00   
    28. D(H   7,C   3,C   2,C   1)    180.00  0.000000   -0.00    180.00   
    29. D(C   4,C   3,C   2,H   6)    180.00  0.000000   -0.00    180.00   
    30. D(H   7,C   3,C   2,H   6)      0.00  0.000000   -0.00     -0.00   
    31. D(C   4,C   3,C   2,C   1)      0.00  0.000000   -0.00     -0.00   
    32. D(H   8,C   4,C   3,C   2)    180.00 -0.000000    0.00    180.00   
    33. D(C   5,C   4,C   3,H   7)    180.00 -0.000000    0.00    180.00   
    34. D(H   8,C   4,C   3,H   7)      0.00 -0.000000   -0.00     -0.00   
    35. D(C   5,C   4,C   3,C   2)      0.00 -0.000000    0.00      0.00   
    36. D(C   0,C   5,C   4,C   3)      0.00 -0.000000   -0.00     -0.00   
    37. D(H   9,C   5,C   0,C   1)    180.00 -0.000000    0.00    180.00   
    38. D(C   0,C   5,C   4,H   8)    180.00  0.000000    0.00    180.00   
    39. D(C   4,C   5,C   0,C   1)      0.00  0.000000    0.00      0.00   
    40. D(H   9,C   5,C   4,H   8)      0.00  0.000000    0.00      0.00   
    41. D(H   9,C   5,C   4,C   3)    180.00  0.000000   -0.00    180.00   
    ----------------------------------------------------------------------------

         *************************************************************
         *                GEOMETRY OPTIMIZATION CYCLE   2            *
         *************************************************************
---------------------------------
CARTESIAN COORDINATES (ANGSTROEM)
---------------------------------
  C      0.088263    0.000000   -0.058870
  C      0.064124    0.000000    1.163868
  C      1.229613   -0.000000    1.940214
  C      2.400902    0.000000    1.222132
  C      2.382199   -0.000000   -0.195811
  C      1.205881    0.000000   -0.914660
  H      1.226060   -0.000000    3.017387
  H      3.337879    0.000000    1.747458
  H      3.311081   -0.000000   -0.736094
  H      1.189430    0.000000   -1.985622

----------------------------
CARTESIAN COORDINATES (A.U.)
----------------------------
  NO LB      ZA    FRAG     MASS         X           Y           Z
   0 C     6.0000    0    12.011    0.166793    0.000000   -0.111249
   1 C     6.0000    0    12.011    0.121176    0.000000    2.199391
   2 C     6.0000    0    12.011    2.323631   -0.000000    3.666472
   3 C     6.0000    0    12.011    4.537048    0.000000    2.309494
   4 C     6.0000    0    12.011    4.501705   -0.000000   -0.370029
   5 C     6.0000    0    12.011    2.278784    0.000000   -1.728457
   6 H     1.0000    0     1.008    2.316917   -0.000000    5.702035
   7 H     1.0000    0     1.008    6.307678    0.000000    3.302216
   8 H     1.0000    0     1.008    6.257037   -0.000000   -1.391016
   9 H     1.0000    0     1.008    2.247698    0.000000   -3.752282

--------------------------------
INTERNAL COORDINATES (ANGSTROEM)
--------------------------------
 C      0   0   0     0.000000000000     0.00000000     0.00000000
 C      1   0   0     1.222976374229     0.00000000     0.00000000
 C      2   1   0     1.400384852942   122.53705006     0.00000000
 C      3   2   1     1.373885576341   114.82076280     0.00000000
 C      4   3   2     1.418065830285   120.75548442     0.00000000
 C      5   4   3     1.378575394280   122.18483396     0.00000000
 H      3   2   1     1.077179114405   123.47907330   180.00000000
 H      4   3   2     1.074194091500   119.21118789   180.00000000
 H      5   4   3     1.074582408453   119.42868893   180.00000000
 H      6   5   4     1.071088427194   122.30915021   180.00000000

---------------------------
INTERNAL COORDINATES (A.U.)
---------------------------
 C      0   0   0     0.000000000000     0.00000000     0.00000000
 C      1   0   0     2.311090415548     0.00000000     0.00000000
 C      2   1   0     2.646343854152   122.53705006     0.00000000
 C      3   2   1     2.596267478628   114.82076280     0.00000000
 C      4   3   2     2.679756059110   120.75548442     0.00000000
 C      5   4   3     2.605129950151   122.18483396     0.00000000
 H      3   2   1     2.035573523405   123.47907330   180.00000000
 H      4   3   2     2.029932647611   119.21118789   180.00000000
 H      5   4   3     2.030666460305   119.42868893   180.00000000
 H      6   5   4     2.024063792610   122.30915021   180.00000000

------------------------------------------------------------------------------
                   ___                                                        
                  /   \      - P O W E R E D   B Y -                         
                 /     \                                                     
                 |  |  |   _    _      __       _____    __    __             
                 |  |  |  | |  | |    /  \     |  _  \  |  |  /  |          
                  \  \/   | |  | |   /    \    | | | |  |  | /  /          
                 / \  \   | |__| |  /  /\  \   | |_| |  |  |/  /          
                |  |  |   |  __  | /  /__\  \  |    /   |      \           
                |  |  |   | |  | | |   __   |  |    \   |  |\   \          
                \     /   | |  | | |  |  |  |  | |\  \  |  | \   \       
                 \___/    |_|  |_| |__|  |__|  |_| \__\ |__|  \__/        
                                                                              
                      - O R C A' S   B I G   F R I E N D -                    
                                      &                                       
                       - I N T E G R A L  F E E D E R -                       
                                                                              
 v1 FN, 2020, v2 2021                                                         
------------------------------------------------------------------------------


Reading SHARK input file benzyne_hf.SHARKINP.tmp ... ok
----------------------
SHARK INTEGRAL PACKAGE
----------------------

Number of atoms                             ...     10
Number of basis functions                   ...     92
Number of shells                            ...     44
Maximum angular momentum                    ...      2
Integral batch strategy                     ... SHARK/LIBINT Hybrid
RI-J (if used) integral strategy            ... SPLIT-RIJ (Revised 2003 algorithm where possible)
Printlevel                                  ...      1
Contraction scheme used                     ... SEGMENTED contraction
Coulomb Range Separation                    ... NOT USED
Exchange Range Separation                   ... NOT USED
Finite Nucleus Model                        ... NOT USED
Auxiliary Coulomb fitting basis             ... NOT available
Auxiliary J/K fitting basis                 ... NOT available
Auxiliary Correlation fitting basis         ... NOT available
Auxiliary 'external' fitting basis          ... NOT available
Integral threshold                          ...     2.500000e-11
Primitive cut-off                           ...     2.500000e-12
Primitive pair pre-selection threshold      ...     2.500000e-12

Calculating pre-screening integrals         ... done (  0.1 sec) Dimension = 44
Organizing shell pair data                  ... done (  0.0 sec)
Shell pair information
Total number of shell pairs                 ...       990
Shell pairs after pre-screening             ...       976
Total number of primitive shell pairs       ...      5809
Primitive shell pairs kept                  ...      4237
          la=0 lb=0:    337 shell pairs
          la=1 lb=0:    312 shell pairs
          la=1 lb=1:     78 shell pairs
          la=2 lb=0:    156 shell pairs
          la=2 lb=1:     72 shell pairs
          la=2 lb=2:     21 shell pairs

Calculating one electron integrals          ... done (  0.0 sec)
Calculating Nuclear repulsion               ... done (  0.0 sec) ENN=    188.647173804698 Eh

SHARK setup successfully completed in   0.2 seconds

Maximum memory used throughout the entire GTOINT-calculation: 10.2 MB

Diagonalization of the overlap matrix:
Smallest eigenvalue                        ... 7.030e-04
Time for diagonalization                   ...    0.002 sec
Threshold for overlap eigenvalues          ... 1.000e-08
Number of eigenvalues below threshold      ... 0
Time for construction of square roots      ...    0.000 sec
Total time needed                          ...    0.003 sec

--------------
SCF ITERATIONS
--------------
ITER       Energy         Delta-E        Max-DP      RMS-DP      [F,P]     Damp
               ***  Starting incremental Fock matrix formation  ***
  0   -229.3783393254   0.000000000000 0.00552191  0.00031679  0.0236143 0.7000
                      *** Initiating the SOSCF procedure ***
                      *** Re-Reading the Fockian *** 
                      *** Removing any level shift *** 
ITER      Energy       Delta-E        Grad      Rot      Max-DP    RMS-DP
  1   -229.37974792  -0.0014085902  0.002203  0.002203  0.014733  0.000927
               *** Restarting incremental Fock matrix formation ***
  2   -229.38355217  -0.0038042572  0.003310  0.006456  0.007115  0.000414
  3   -229.38389737  -0.0003451975  0.002596  0.003748  0.003304  0.000231
  4   -229.38401866  -0.0001212898  0.000604  0.001376  0.001371  0.000066
  5   -229.38403309  -0.0000144309  0.000301  0.001044  0.000738  0.000041
  6   -229.38403773  -0.0000046354  0.000100  0.000463  0.000260  0.000016
  7   -229.38403816  -0.0000004375  0.000028  0.000101  0.000054  0.000004
  8   -229.38403820  -0.0000000321  0.000012  0.000028  0.000034  0.000002
  9   -229.38403820  -0.0000000067  0.000005  0.000011  0.000011  0.000001
                  ***Gradient check signals convergence***
              ***Rediagonalizing the Fockian in SOSCF/NRSCF***

               *****************************************************
               *                     SUCCESS                       *
               *           SCF CONVERGED AFTER  10 CYCLES          *
               *****************************************************

Total Energy       :         -229.38403820 Eh           -6241.85701 eV
  Last Energy change         ...   -6.0140e-10  Tolerance :   1.0000e-08
  Last MAX-Density change    ...    7.1278e-06  Tolerance :   1.0000e-07
             **** THE GBW FILE WAS UPDATED (benzyne_hf.gbw) ****
             **** DENSITY benzyne_hf.scfp WAS UPDATED ****
             **** ENERGY FILE WAS UPDATED (benzyne_hf.en.tmp) ****
             **** THE GBW FILE WAS UPDATED (benzyne_hf.gbw) ****
             **** DENSITY benzyne_hf.scfp WAS UPDATED ****
Total SCF time: 0 days 0 hours 0 min 10 sec 

Maximum memory used throughout the entire SCF-calculation: 233.2 MB

-------------------------   --------------------
FINAL SINGLE POINT ENERGY      -229.384038203229
-------------------------   --------------------

------------------------------------------------------------------------------
                         ORCA SCF GRADIENT CALCULATION
------------------------------------------------------------------------------

Gradient of the Hartree-Fock SCF energy:
Hartree-Fock type                ... RHF
Number of operators              ...    1
Number of atoms                  ...   10
Basis set dimensions             ...   92
Integral neglect threshold       ... 2.5e-11
Integral primitive cutoff        ... 2.5e-12
SHARK Integral package           ... ON

Nuc. rep. gradient       (SHARK) ... done (  0.0 sec)
HCore & Overlap gradient (SHARK) ... done (  0.1 sec)
Two-Electron gradient    (SHARK) ... done (  4.6 sec)

------------------
CARTESIAN GRADIENT
------------------

   1   C   :   -0.018454394    0.000000000    0.007165053
   2   C   :   -0.011131298    0.000000000    0.007105971
   3   C   :    0.013090095   -0.000000000   -0.022858407
   4   C   :    0.003503282    0.000000000    0.011867633
   5   C   :   -0.001759515   -0.000000000   -0.005487176
   6   C   :    0.018082900    0.000000000   -0.001166997
   7   H   :   -0.001992756   -0.000000000    0.001748684
   8   H   :   -0.001133428    0.000000000    0.000765334
   9   H   :   -0.001364565    0.000000000   -0.000185567
  10   H   :    0.001159680    0.000000000    0.001045472

Difference to translation invariance:
           :    0.0000000000   -0.0000000000    0.0000000000

Difference to rotation invariance:
           :   -0.0000000000    0.0000003552   -0.0000000000

Norm of the cartesian gradient     ...    0.0422855319
RMS gradient                       ...    0.0077202466
MAX gradient                       ...    0.0228584074

-------
TIMINGS
-------

Total SCF gradient time            ...        4.756 sec

One electron gradient       ....       0.083 sec  (  1.7%)
Two electron gradient       ....       4.614 sec  ( 97.0%)

Maximum memory used throughout the entire SCFGRAD-calculation: 21.9 MB
------------------------------------------------------------------------------
                         ORCA GEOMETRY RELAXATION STEP
------------------------------------------------------------------------------

Reading the OPT-File                    .... done
Getting information on internals        .... done
Copying old internal coords+grads       .... done
Making the new internal coordinates     .... (new redundants).... done
Validating the new internal coordinates .... (new redundants).... done
Calculating the B-matrix                .... done
Calculating the G,G- and P matrices     .... done
Transforming gradient to internals      .... done
Projecting the internal gradient        .... done
Number of atoms                         ....  10
Number of internal coordinates          ....  41
Current Energy                          ....  -229.384038203 Eh
Current gradient norm                   ....     0.042285532 Eh/bohr
Maximum allowed component of the step   ....  0.300
Current trust radius                    ....  0.300
Updating the Hessian (BFGS)             .... done
Forming the augmented Hessian           .... done
Diagonalizing the augmented Hessian     .... done
Last element of RFO vector              ....  0.994688087
Lowest eigenvalues of augmented Hessian:
 -0.003355414  0.018713995  0.021319839  0.024156040  0.024859337
Length of the computed step             ....  0.103484679
The final length of the internal step   ....  0.103484679
Converting the step to cartesian space:
 Initial RMS(Int)=    0.0161615915
Transforming coordinates:
 Iter   0:  RMS(Cart)=    0.0217104794 RMS(Int)=    2.4036618581
 Iter   1:  RMS(Cart)=    0.0003031829 RMS(Int)=    0.0002383466
 Iter   2:  RMS(Cart)=    0.0000062757 RMS(Int)=    0.0000045382
 Iter   3:  RMS(Cart)=    0.0000001579 RMS(Int)=    0.0000001365
 Iter   4:  RMS(Cart)=    0.0000000038 RMS(Int)=    0.0000000028
done
Storing new coordinates                 .... done

                                .--------------------.
          ----------------------|Geometry convergence|-------------------------
          Item                value                   Tolerance       Converged
          ---------------------------------------------------------------------
          Energy change      -0.0204630322            0.0000050000      NO
          RMS gradient        0.0051091209            0.0001000000      NO
          MAX gradient        0.0187021400            0.0003000000      NO
          RMS step            0.0161615915            0.0020000000      NO
          MAX step            0.0630917055            0.0040000000      NO
          ........................................................
          Max(Bonds)      0.0334      Max(Angles)    2.84
          Max(Dihed)        0.00      Max(Improp)    0.00
          ---------------------------------------------------------------------

The optimization has not yet converged - more geometry cycles are needed


    ---------------------------------------------------------------------------
                         Redundant Internal Coordinates
                            (Angstroem and degrees)

        Definition                    Value    dE/dq     Step     New-Value
    ----------------------------------------------------------------------------
     1. B(C   1,C   0)                1.2230 -0.000927  0.0015    1.2245   
     2. B(C   2,C   1)                1.4004  0.004533 -0.0050    1.3954   
     3. B(C   3,C   2)                1.3739 -0.007083  0.0066    1.3805   
     4. B(C   4,C   3)                1.4181 -0.000402  0.0011    1.4191   
     5. B(C   5,C   4)                1.3786 -0.003577  0.0032    1.3817   
     6. B(C   5,C   0)                1.4076  0.018702 -0.0334    1.3743   
     7. B(H   6,C   2)                1.0772  0.001755 -0.0035    1.0737   
     8. B(H   7,C   3)                1.0742 -0.000614  0.0007    1.0749   
     9. B(H   8,C   4)                1.0746 -0.001086  0.0015    1.0761   
    10. B(H   9,C   5)                1.0711 -0.001063  0.0014    1.0725   
    11. A(C   1,C   0,C   5)          128.57 -0.007507    1.35    129.93   
    12. A(C   0,C   1,C   2)          122.54 -0.008311    1.36    123.90   
    13. A(C   1,C   2,H   6)          123.48 -0.009763    1.85    125.33   
    14. A(C   1,C   2,C   3)          114.82  0.015481   -2.84    111.98   
    15. A(C   3,C   2,H   6)          121.70 -0.005718    0.99    122.69   
    16. A(C   2,C   3,C   4)          120.76 -0.005713    1.07    121.82   
    17. A(C   4,C   3,H   7)          120.03  0.004097   -0.77    119.26   
    18. A(C   2,C   3,H   7)          119.21  0.001616   -0.30    118.91   
    19. A(C   5,C   4,H   8)          118.39 -0.000262   -0.02    118.37   
    20. A(C   3,C   4,H   8)          119.43  0.001457   -0.34    119.09   
    21. A(C   3,C   4,C   5)          122.18 -0.001195    0.36    122.54   
    22. A(C   4,C   5,H   9)          122.31 -0.004780    0.90    123.21   
    23. A(C   0,C   5,H   9)          126.56 -0.002465    0.40    126.96   
    24. A(C   0,C   5,C   4)          111.13  0.007245   -1.30    109.83   
    25. D(C   2,C   1,C   0,C   5)     -0.00  0.000000   -0.00     -0.00   
    26. D(H   6,C   2,C   1,C   0)   -180.00 -0.000000    0.00   -180.00   
    27. D(C   3,C   2,C   1,C   0)      0.00 -0.000000   -0.00      0.00   
    28. D(H   7,C   3,C   2,C   1)    180.00 -0.000000    0.00    180.00   
    29. D(C   4,C   3,C   2,H   6)    180.00 -0.000000    0.00    180.00   
    30. D(H   7,C   3,C   2,H   6)     -0.00 -0.000000    0.00      0.00   
    31. D(C   4,C   3,C   2,C   1)     -0.00 -0.000000    0.00      0.00   
    32. D(H   8,C   4,C   3,C   2)   -180.00 -0.000000    0.00   -180.00   
    33. D(C   5,C   4,C   3,H   7)   -180.00  0.000000   -0.00   -180.00   
    34. D(H   8,C   4,C   3,H   7)     -0.00 -0.000000    0.00      0.00   
    35. D(C   5,C   4,C   3,C   2)      0.00  0.000000   -0.00     -0.00   
    36. D(C   0,C   5,C   4,C   3)     -0.00 -0.000000    0.00      0.00   
    37. D(H   9,C   5,C   0,C   1)   -180.00  0.000000   -0.00   -180.00   
    38. D(C   0,C   5,C   4,H   8)   -180.00  0.000000   -0.00   -180.00   
    39. D(C   4,C   5,C   0,C   1)      0.00  0.000000   -0.00     -0.00   
    40. D(H   9,C   5,C   4,H   8)      0.00  0.000000   -0.00     -0.00   
    41. D(H   9,C   5,C   4,C   3)    180.00 -0.000000    0.00    180.00   
    ----------------------------------------------------------------------------

         *************************************************************
         *                GEOMETRY OPTIMIZATION CYCLE   3            *
         *************************************************************
---------------------------------
CARTESIAN COORDINATES (ANGSTROEM)
---------------------------------
  C      0.122583    0.000000   -0.071015
  C      0.089119    0.000000    1.153240
  C      1.224912   -0.000000    1.964306
  C      2.389767    0.000000    1.223335
  C      2.373556    0.000000   -0.195518
  C      1.199883    0.000000   -0.924188
  H      1.220909   -0.000000    3.037966
  H      3.333354   -0.000000    1.738126
  H      3.307636   -0.000000   -0.729889
  H      1.173712   -0.000000   -1.996364

----------------------------
CARTESIAN COORDINATES (A.U.)
----------------------------
  NO LB      ZA    FRAG     MASS         X           Y           Z
   0 C     6.0000    0    12.011    0.231649    0.000000   -0.134198
   1 C     6.0000    0    12.011    0.168410    0.000000    2.179309
   2 C     6.0000    0    12.011    2.314748   -0.000000    3.712000
   3 C     6.0000    0    12.011    4.516005    0.000000    2.311768
   4 C     6.0000    0    12.011    4.485371    0.000000   -0.369475
   5 C     6.0000    0    12.011    2.267450    0.000000   -1.746462
   6 H     1.0000    0     1.008    2.307184   -0.000000    5.740925
   7 H     1.0000    0     1.008    6.299126   -0.000000    3.284582
   8 H     1.0000    0     1.008    6.250527   -0.000000   -1.379291
   9 H     1.0000    0     1.008    2.217994   -0.000000   -3.772581

--------------------------------
INTERNAL COORDINATES (ANGSTROEM)
--------------------------------
 C      0   0   0     0.000000000000     0.00000000     0.00000000
 C      1   0   0     1.224712337796     0.00000000     0.00000000
 C      2   1   0     1.395655417235   123.96470977     0.00000000
 C      3   2   1     1.380552486035   112.00883862     0.00000000
 C      4   3   2     1.418945249616   121.80608679     0.00000000
 C      1   2   3     1.374219235617   129.94343826     0.00000000
 H      3   2   1     1.073667870949   125.31687441   180.00000085
 H      4   3   2     1.074879238028   118.92385581   180.00000000
 H      5   4   3     1.076131430971   119.11857206   180.00000000
 H      6   1   2     1.072495427187   126.97940402   180.00000000

---------------------------
INTERNAL COORDINATES (A.U.)
---------------------------
 C      0   0   0     0.000000000000     0.00000000     0.00000000
 C      1   0   0     2.314370911270     0.00000000     0.00000000
 C      2   1   0     2.637406515898   123.96470977     0.00000000
 C      3   2   1     2.608866112110   112.00883862     0.00000000
 C      4   3   2     2.681417920802   121.80608679     0.00000000
 C      1   2   3     2.596898003283   129.94343826     0.00000000
 H      3   2   1     2.028938234883   125.31687441   180.00000085
 H      4   3   2     2.031227386911   118.92385581   180.00000000
 H      5   4   3     2.033593688640   119.11857206   180.00000000
 H      6   1   2     2.026722637266   126.97940402   180.00000000

------------------------------------------------------------------------------
                   ___                                                        
                  /   \      - P O W E R E D   B Y -                         
                 /     \                                                     
                 |  |  |   _    _      __       _____    __    __             
                 |  |  |  | |  | |    /  \     |  _  \  |  |  /  |          
                  \  \/   | |  | |   /    \    | | | |  |  | /  /          
                 / \  \   | |__| |  /  /\  \   | |_| |  |  |/  /          
                |  |  |   |  __  | /  /__\  \  |    /   |      \           
                |  |  |   | |  | | |   __   |  |    \   |  |\   \          
                \     /   | |  | | |  |  |  |  | |\  \  |  | \   \       
                 \___/    |_|  |_| |__|  |__|  |_| \__\ |__|  \__/        
                                                                              
                      - O R C A' S   B I G   F R I E N D -                    
                                      &                                       
                       - I N T E G R A L  F E E D E R -                       
                                                                              
 v1 FN, 2020, v2 2021                                                         
------------------------------------------------------------------------------


Reading SHARK input file benzyne_hf.SHARKINP.tmp ... ok
----------------------
SHARK INTEGRAL PACKAGE
----------------------

Number of atoms                             ...     10
Number of basis functions                   ...     92
Number of shells                            ...     44
Maximum angular momentum                    ...      2
Integral batch strategy                     ... SHARK/LIBINT Hybrid
RI-J (if used) integral strategy            ... SPLIT-RIJ (Revised 2003 algorithm where possible)
Printlevel                                  ...      1
Contraction scheme used                     ... SEGMENTED contraction
Coulomb Range Separation                    ... NOT USED
Exchange Range Separation                   ... NOT USED
Finite Nucleus Model                        ... NOT USED
Auxiliary Coulomb fitting basis             ... NOT available
Auxiliary J/K fitting basis                 ... NOT available
Auxiliary Correlation fitting basis         ... NOT available
Auxiliary 'external' fitting basis          ... NOT available
Integral threshold                          ...     2.500000e-11
Primitive cut-off                           ...     2.500000e-12
Primitive pair pre-selection threshold      ...     2.500000e-12

Calculating pre-screening integrals         ... done (  0.1 sec) Dimension = 44
Organizing shell pair data                  ... done (  0.0 sec)
Shell pair information
Total number of shell pairs                 ...       990
Shell pairs after pre-screening             ...       976
Total number of primitive shell pairs       ...      5809
Primitive shell pairs kept                  ...      4242
          la=0 lb=0:    337 shell pairs
          la=1 lb=0:    312 shell pairs
          la=1 lb=1:     78 shell pairs
          la=2 lb=0:    156 shell pairs
          la=2 lb=1:     72 shell pairs
          la=2 lb=2:     21 shell pairs

Calculating one electron integrals          ... done (  0.0 sec)
Calculating Nuclear repulsion               ... done (  0.0 sec) ENN=    189.210892930878 Eh

SHARK setup successfully completed in   0.2 seconds

Maximum memory used throughout the entire GTOINT-calculation: 10.2 MB

Diagonalization of the overlap matrix:
Smallest eigenvalue                        ... 6.764e-04
Time for diagonalization                   ...    0.002 sec
Threshold for overlap eigenvalues          ... 1.000e-08
Number of eigenvalues below threshold      ... 0
Time for construction of square roots      ...    0.000 sec
Total time needed                          ...    0.003 sec

--------------
SCF ITERATIONS
--------------
ITER       Energy         Delta-E        Max-DP      RMS-DP      [F,P]     Damp
               ***  Starting incremental Fock matrix formation  ***
  0   -229.3847687480   0.000000000000 0.00188863  0.00013048  0.0092552 0.7000
                      *** Initiating the SOSCF procedure ***
                      *** Re-Reading the Fockian *** 
                      *** Removing any level shift *** 
ITER      Energy       Delta-E        Grad      Rot      Max-DP    RMS-DP
  1   -229.38499821  -0.0002294665  0.001063  0.001063  0.006047  0.000395
               *** Restarting incremental Fock matrix formation ***
  2   -229.38567641  -0.0006781969  0.002209  0.004658  0.002681  0.000183
  3   -229.38576287  -0.0000864625  0.001388  0.003662  0.002559  0.000160
  4   -229.38579307  -0.0000301918  0.000444  0.000778  0.000552  0.000039
  5   -229.38579829  -0.0000052285  0.000195  0.000742  0.000394  0.000029
  6   -229.38579951  -0.0000012160  0.000099  0.000224  0.000118  0.000008
  7   -229.38579965  -0.0000001412  0.000015  0.000027  0.000036  0.000002
  8   -229.38579966  -0.0000000107  0.000005  0.000009  0.000012  0.000001
                  ***Gradient check signals convergence***
              ***Rediagonalizing the Fockian in SOSCF/NRSCF***

               *****************************************************
               *                     SUCCESS                       *
               *           SCF CONVERGED AFTER   9 CYCLES          *
               *****************************************************

Total Energy       :         -229.38579966 Eh           -6241.90494 eV
  Last Energy change         ...   -1.6905e-09  Tolerance :   1.0000e-08
  Last MAX-Density change    ...    4.9339e-06  Tolerance :   1.0000e-07
             **** THE GBW FILE WAS UPDATED (benzyne_hf.gbw) ****
             **** DENSITY benzyne_hf.scfp WAS UPDATED ****
             **** ENERGY FILE WAS UPDATED (benzyne_hf.en.tmp) ****
             **** THE GBW FILE WAS UPDATED (benzyne_hf.gbw) ****
             **** DENSITY benzyne_hf.scfp WAS UPDATED ****
Total SCF time: 0 days 0 hours 0 min 10 sec 

Maximum memory used throughout the entire SCF-calculation: 233.3 MB

-------------------------   --------------------
FINAL SINGLE POINT ENERGY      -229.385799663711
-------------------------   --------------------

------------------------------------------------------------------------------
                         ORCA SCF GRADIENT CALCULATION
------------------------------------------------------------------------------

Gradient of the Hartree-Fock SCF energy:
Hartree-Fock type                ... RHF
Number of operators              ...    1
Number of atoms                  ...   10
Basis set dimensions             ...   92
Integral neglect threshold       ... 2.5e-11
Integral primitive cutoff        ... 2.5e-12
SHARK Integral package           ... ON

Nuc. rep. gradient       (SHARK) ... done (  0.0 sec)
HCore & Overlap gradient (SHARK) ... done (  0.1 sec)
Two-Electron gradient    (SHARK) ... done (  4.6 sec)

------------------
CARTESIAN GRADIENT
------------------

   1   C   :    0.006046928   -0.000000000   -0.009971132
[...]
     15       0.000000   0.000000   0.000000   0.000000   0.000000   0.000000
     16       0.000000   0.000000   0.000000   0.000000   0.000000   0.000000
     17       0.000000   0.000000   0.000000   0.000000   0.000000   0.000000
     18       0.000000   0.000000   0.000000   0.000000   0.000000   0.000000
     19       0.000000   0.000000   0.000000   0.000000   0.000000   0.000000
     20       0.000000   0.000000   0.000000   0.000000   0.000000   0.000000
     21       0.000000   0.000000   0.000000   0.000000   0.000000   0.000000
     22       0.000000   0.000000   0.000000   0.000000   0.000000   0.000000
     23       0.000000   0.000000   0.000000   0.000000   0.000000   0.000000
     24       0.000000   0.000000   0.000000   0.000000   0.000000   0.000000
     25       0.000000   0.000000   0.000000   0.000000   0.000000   0.000000
     26       0.000000   0.000000   0.000000   0.000000   0.000000   0.000000
     27       0.000000   0.000000   0.000000   0.000000   0.000000   0.000000
     28       0.000000   0.000000   0.000000   0.000000   0.000000   0.000000
     29       0.000000   0.000000   0.000000   0.000000   0.000000   0.000000
                  6          7          8          9         10         11    
      0      -0.559823  -0.000000   0.000000  -0.000000   0.295909  -0.000000
      1      -0.000000   0.141846  -0.602428  -0.068509   0.000000   0.042524
      2      -0.285420   0.000000   0.000000   0.000000  -0.002974  -0.000000
      3       0.554635  -0.000000  -0.000000   0.000000   0.295830  -0.000000
      4       0.000000   0.141197   0.602976   0.068509   0.000000   0.042540
      5      -0.295424   0.000000   0.000000   0.000000  -0.002324   0.000000
      6       0.079727   0.000000  -0.000000  -0.000000  -0.037121   0.000000
      7      -0.000000  -0.213067  -0.124073  -0.166093  -0.000000  -0.078230
      8       0.146431   0.000000  -0.000000  -0.000000   0.369951   0.000000
      9       0.071972   0.000000  -0.000000  -0.000000  -0.239512  -0.000000
     10      -0.000000   0.117335  -0.208418   0.231151  -0.000000  -0.046223
     11       0.123700  -0.000000  -0.000000   0.000000   0.049855   0.000000
     12      -0.069789   0.000000   0.000000   0.000000  -0.240365   0.000000
     13       0.000000   0.117135   0.208905  -0.231128  -0.000000  -0.046288
     14       0.124979   0.000000  -0.000000   0.000000  -0.045526  -0.000000
     15      -0.077072   0.000000   0.000000   0.000000  -0.043782   0.000000
     16       0.000000  -0.213209   0.123217   0.166088  -0.000000  -0.078247
     17       0.147755  -0.000000  -0.000000  -0.000000  -0.369260   0.000000
     18      -0.150440   0.000000   0.000000  -0.000000  -0.103393  -0.000000
     19      -0.000000  -0.641228  -0.067847  -0.131855   0.000000   0.407476
     20       0.134369   0.000000  -0.000000  -0.000000   0.372385  -0.000000
     21       0.087117   0.000000  -0.000000  -0.000000  -0.079887   0.000000
     22      -0.000000   0.097839  -0.270877   0.629980  -0.000000   0.568932
     23       0.092525   0.000000   0.000000   0.000000  -0.242039  -0.000000
     24      -0.085464   0.000000   0.000000   0.000000  -0.075479   0.000000
     25       0.000000   0.097590   0.271297  -0.630061   0.000000   0.569081
     26       0.094130  -0.000000   0.000000   0.000000   0.243468   0.000000
     27       0.152955   0.000000  -0.000000   0.000000  -0.110151  -0.000000
     28       0.000000  -0.641350   0.065306   0.131728   0.000000   0.407783
     29       0.131528  -0.000000  -0.000000  -0.000000  -0.370492   0.000000
                 12         13         14         15         16         17    
      0      -0.101874  -0.000000  -0.000000   0.012465  -0.250391  -0.000000
      1      -0.000000   0.023627  -0.011281   0.000000  -0.000000  -0.003417
      2       0.055457   0.000000  -0.000000  -0.001874  -0.025319   0.000000
      3       0.102870   0.000000  -0.000000   0.012493  -0.249985   0.000000
      4       0.000000  -0.023607  -0.011272   0.000000  -0.000000   0.003425
      5       0.053615   0.000000   0.000000   0.001665   0.029766   0.000000
      6      -0.115218  -0.000000   0.000000   0.114698   0.209863   0.000000
      7       0.000000  -0.063079   0.096944  -0.000000  -0.000000  -0.066641
      8       0.183068   0.000000  -0.000000  -0.087903   0.199158  -0.000000
      9      -0.346552  -0.000000  -0.000000  -0.168929  -0.001962  -0.000000
     10       0.000000  -0.082750  -0.080871   0.000000   0.000000   0.102235
     11      -0.243168  -0.000000  -0.000000  -0.134763   0.165741   0.000000
     12       0.342095   0.000000  -0.000000  -0.166454  -0.004969   0.000000
     13      -0.000000   0.082707  -0.080984   0.000000   0.000000  -0.102156
     14      -0.249391  -0.000000   0.000000   0.137794  -0.165707   0.000000
     15       0.118504   0.000000   0.000000   0.116248   0.206197  -0.000000
     16      -0.000000   0.063059   0.096998  -0.000000  -0.000000   0.066554
     17       0.180953   0.000000   0.000000   0.085795  -0.202808  -0.000000
     18       0.165415  -0.000000   0.000000   0.554158   0.514199   0.000000
     19      -0.000000   0.619602  -0.519339   0.000000   0.000000   0.386480
     20       0.179198  -0.000000   0.000000  -0.099126   0.211375  -0.000000
     21      -0.444262  -0.000000  -0.000000  -0.084486   0.032502  -0.000000
     22      -0.000000   0.323917   0.462365  -0.000000  -0.000000  -0.579828
     23      -0.060702  -0.000000  -0.000000  -0.328920   0.123670   0.000000
     24       0.443095   0.000000  -0.000000  -0.078473   0.030158   0.000000
     25       0.000000  -0.323552   0.462987  -0.000000  -0.000000   0.579355
     26      -0.068713  -0.000000   0.000000   0.330480  -0.124426   0.000000
     27      -0.162157   0.000000   0.000000   0.555863   0.510408  -0.000000
     28       0.000000  -0.619456  -0.519605   0.000000   0.000000  -0.386005
     29       0.182163  -0.000000  -0.000000   0.089060  -0.220530  -0.000000
                 18         19         20         21         22         23    
      0       0.034707   0.059727  -0.078964  -0.007851  -0.089682   0.041435
      1      -0.000000   0.000000   0.000000  -0.000000   0.000000   0.000000
      2      -0.021371   0.031374   0.115824   0.048294   0.079686   0.051920
      3      -0.035011   0.059182   0.081031  -0.008605   0.091067   0.040493
      4       0.000000   0.000000  -0.000000  -0.000000  -0.000000   0.000000
      5      -0.020768  -0.032426   0.114479  -0.047986   0.078085  -0.052668
      6      -0.055890   0.024626  -0.019929   0.129432  -0.150056  -0.098902
      7      -0.000000  -0.000000   0.000000  -0.000000   0.000000  -0.000000
      8       0.101940  -0.063663  -0.092557  -0.064281  -0.103204  -0.069265
      9       0.059366  -0.064530  -0.002795  -0.078454  -0.032173  -0.005131
     10       0.000000   0.000000  -0.000000   0.000000  -0.000000   0.000000
     11      -0.050992   0.087071  -0.026993   0.090295   0.076847   0.189674
     12      -0.060325  -0.066048   0.002433  -0.080083   0.033531  -0.008704
     13      -0.000000   0.000000   0.000000   0.000000   0.000000   0.000000
     14      -0.049913  -0.085851  -0.026962  -0.088928   0.076195  -0.189631
     15       0.057703   0.025746   0.018067   0.130564   0.148229  -0.097511
     16       0.000000  -0.000000  -0.000000  -0.000000  -0.000000  -0.000000
     17       0.100976   0.063135  -0.093007   0.061821  -0.105897   0.071094
     18      -0.408161   0.109612  -0.649320  -0.614247   0.343660   0.445634
     19       0.000000   0.000000  -0.000000  -0.000000  -0.000000   0.000000
     20       0.111922  -0.070629  -0.101006  -0.072741  -0.119063  -0.079661
     21       0.284331  -0.335474  -0.107972   0.104020   0.265856   0.314930
     22      -0.000000   0.000000   0.000000  -0.000000  -0.000000  -0.000000
     23      -0.467416   0.591357   0.163005  -0.263911  -0.492582  -0.375286
     24      -0.292946  -0.345960   0.110803   0.108981  -0.274591   0.321738
     25       0.000000   0.000000  -0.000000  -0.000000   0.000000  -0.000000
     26      -0.462509  -0.585002   0.160686   0.262318  -0.487509   0.369903
     27       0.410209   0.110646   0.648368  -0.611631  -0.345840   0.446720
     28      -0.000000   0.000000   0.000000  -0.000000   0.000000   0.000000
     29       0.104586   0.068560  -0.112882   0.083706  -0.112816   0.071656
                 24         25         26         27         28         29    
      0       0.033560   0.053018   0.000052  -0.000128  -0.002609  -0.001747
      1       0.000000   0.000000  -0.000000  -0.000000  -0.000000  -0.000000
      2      -0.030175  -0.656255   0.000115   0.000497   0.001302   0.001829
      3      -0.034047   0.064746  -0.000050  -0.000137   0.002663  -0.001732
      4      -0.000000   0.000000   0.000000   0.000000   0.000000  -0.000000
      5      -0.029628   0.655134   0.000114  -0.000495   0.001285  -0.001774
      6       0.210322   0.005639   0.001534   0.001968   0.000688  -0.000897
      7       0.000000  -0.000000  -0.000000   0.000000  -0.000000   0.000000
      8      -0.043776  -0.097253   0.009582   0.014349  -0.061846   0.060446
      9      -0.213264  -0.058898  -0.053392  -0.051782  -0.012230   0.015630
     10       0.000000   0.000000   0.000000   0.000000   0.000000  -0.000000
     11       0.123508   0.134994  -0.026438  -0.030621  -0.002793   0.006326
     12       0.215465  -0.061327   0.052619  -0.051514   0.011901   0.015740
     13      -0.000000   0.000000  -0.000000   0.000000  -0.000000  -0.000000
     14       0.119462  -0.133916  -0.027222   0.031702  -0.002896  -0.006666
     15      -0.211202   0.007352  -0.001351   0.001716  -0.001770  -0.002022
     16      -0.000000  -0.000000   0.000000   0.000000   0.000000   0.000000
     17      -0.039896   0.097190   0.009542  -0.014437  -0.060736  -0.061513
     18      -0.306332  -0.111865  -0.002721  -0.003538   0.000055  -0.000068
     19      -0.000000  -0.000000  -0.000000  -0.000000   0.000000  -0.000000
     20      -0.060612  -0.131294  -0.124078  -0.177307   0.699834  -0.675853
     21       0.109937   0.047411   0.615696   0.598269   0.110095  -0.154645
     22      -0.000000  -0.000000  -0.000000  -0.000000   0.000000   0.000000
     23      -0.530673  -0.057960   0.323469   0.322534   0.054868  -0.080307
     24      -0.119142   0.048471  -0.606441   0.595717  -0.106356  -0.155229
     25       0.000000  -0.000000   0.000000  -0.000000   0.000000   0.000000
     26      -0.528185   0.057133   0.332669  -0.335133   0.055368   0.084163
     27       0.305598  -0.109488   0.000470  -0.000330   0.012392   0.012387
     28       0.000000  -0.000000   0.000000  -0.000000  -0.000000  -0.000000
     29      -0.066077   0.133374  -0.123276   0.178053   0.687552   0.688109


-----------
IR SPECTRUM
-----------

 Mode   freq       eps      Int      T**2         TX        TY        TZ
       cm**-1   L/(mol*cm) km/mol    a.u.
----------------------------------------------------------------------------
  6:    316.94   0.037495  189.48  0.036918  ( 0.001710 -0.000000  0.192132)
  7:    431.04   0.001191    6.02  0.000863  (-0.000000 -0.029369  0.000000)
  8:    444.31   0.000000    0.00  0.000000  (-0.000000 -0.000038 -0.000000)
  9:    632.48   0.000000    0.00  0.000000  ( 0.000000 -0.000010 -0.000000)
 10:    670.39   0.000154    0.78  0.000071  (-0.008455  0.000000  0.000068)
 11:    838.61   0.014985   75.73  0.005576  (-0.000000  0.074673  0.000000)
 12:    901.54   0.006620   33.46  0.002292  ( 0.000423 -0.000000  0.047868)
 13:    970.11   0.000000    0.00  0.000000  ( 0.000000  0.000015 -0.000000)
 14:   1049.33   0.000009    0.05  0.000003  ( 0.000000  0.001634 -0.000000)
 15:   1076.73   0.000918    4.64  0.000266  ( 0.016314  0.000000 -0.000151)
 16:   1089.82   0.005982   30.23  0.001713  ( 0.041387  0.000000 -0.000373)
 17:   1099.11   0.000000    0.00  0.000000  (-0.000000 -0.000004 -0.000000)
 18:   1211.09   0.000164    0.83  0.000042  (-0.000065 -0.000000 -0.006493)
 19:   1244.48   0.000121    0.61  0.000030  (-0.005497 -0.000000  0.000048)
 20:   1372.66   0.000016    0.08  0.000004  (-0.000012  0.000000 -0.001906)
 21:   1404.32   0.000076    0.39  0.000017  (-0.004114 -0.000000  0.000039)
 22:   1545.99   0.000652    3.29  0.000132  (-0.000109  0.000000 -0.011469)
 23:   1611.82   0.000031    0.16  0.000006  ( 0.002445 -0.000000 -0.000010)
 24:   1650.06   0.004903   24.78  0.000927  (-0.000268  0.000000 -0.030450)
 25:   2210.97   0.000011    0.05  0.000002  (-0.001237 -0.000000 -0.000005)
 26:   3351.57   0.000997    5.04  0.000093  (-0.000139 -0.000000 -0.009633)
 27:   3369.87   0.003139   15.86  0.000291  (-0.017049  0.000000  0.000179)
 28:   3405.16   0.008533   43.12  0.000782  (-0.000345 -0.000000 -0.027962)
 29:   3408.69   0.001145    5.79  0.000105  ( 0.010233  0.000000 -0.000338)

* The epsilon (eps) is given for a Dirac delta lineshape.
** The dipole moment derivative (T) already includes vibrational overlap.

The first frequency considered to be a vibration is 6
The total number of vibrations considered is 24


--------------------------
THERMOCHEMISTRY AT 298.15K
--------------------------

Temperature         ... 298.15 K
Pressure            ... 1.00 atm
Total Mass          ... 76.10 AMU

Throughout the following assumptions are being made:
  (1) The electronic state is orbitally nondegenerate
  (2) There are no thermally accessible electronically excited states
  (3) Hindered rotations indicated by low frequency modes are not
      treated as such but are treated as vibrations and this may
      cause some error
  (4) All equations used are the standard statistical mechanics
      equations for an ideal gas
  (5) All vibrations are strictly harmonic

freq.     316.94  E(vib)   ...       0.25 
freq.     431.04  E(vib)   ...       0.18 
freq.     444.31  E(vib)   ...       0.17 
freq.     632.48  E(vib)   ...       0.09 
freq.     670.39  E(vib)   ...       0.08 
freq.     838.61  E(vib)   ...       0.04 
freq.     901.54  E(vib)   ...       0.03 
freq.     970.11  E(vib)   ...       0.03 
freq.    1049.33  E(vib)   ...       0.02 
freq.    1076.73  E(vib)   ...       0.02 
freq.    1089.82  E(vib)   ...       0.02 
freq.    1099.11  E(vib)   ...       0.02 
freq.    1211.09  E(vib)   ...       0.01 
freq.    1244.48  E(vib)   ...       0.01 
freq.    1372.66  E(vib)   ...       0.01 
freq.    1404.32  E(vib)   ...       0.00 
freq.    1545.99  E(vib)   ...       0.00 
freq.    1611.82  E(vib)   ...       0.00 
freq.    1650.06  E(vib)   ...       0.00 
freq.    2210.97  E(vib)   ...       0.00 
freq.    3351.57  E(vib)   ...       0.00 
freq.    3369.87  E(vib)   ...       0.00 
freq.    3405.16  E(vib)   ...       0.00 
freq.    3408.69  E(vib)   ...       0.00 

------------
INNER ENERGY
------------

The inner energy is: U= E(el) + E(ZPE) + E(vib) + E(rot) + E(trans)
    E(el)   - is the total energy from the electronic structure calculation
              = E(kin-el) + E(nuc-el) + E(el-el) + E(nuc-nuc)
    E(ZPE)  - the the zero temperature vibrational energy from the frequency calculation
    E(vib)  - the the finite temperature correction to E(ZPE) due to population
              of excited vibrational states
    E(rot)  - is the rotational thermal energy
    E(trans)- is the translational thermal energy

Summary of contributions to the inner energy U:
Electronic energy                ...   -229.38631639 Eh
Zero point energy                ...      0.08043546 Eh      50.47 kcal/mol
Thermal vibrational correction   ...      0.00154401 Eh       0.97 kcal/mol
Thermal rotational correction    ...      0.00141627 Eh       0.89 kcal/mol
Thermal translational correction ...      0.00141627 Eh       0.89 kcal/mol
-----------------------------------------------------------------------
Total thermal energy                   -229.30150438 Eh


Summary of corrections to the electronic energy:
(perhaps to be used in another calculation)
Total thermal correction                  0.00437656 Eh       2.75 kcal/mol
Non-thermal (ZPE) correction              0.08043546 Eh      50.47 kcal/mol
-----------------------------------------------------------------------
Total correction                          0.08481202 Eh      53.22 kcal/mol


--------
ENTHALPY
--------

The enthalpy is H = U + kB*T
                kB is Boltzmann's constant
Total free energy                 ...   -229.30150438 Eh 
Thermal Enthalpy correction       ...      0.00094421 Eh       0.59 kcal/mol
-----------------------------------------------------------------------
Total Enthalpy                    ...   -229.30056017 Eh


Note: Rotational entropy computed according to Herzberg 
Infrared and Raman Spectra, Chapter V,1, Van Nostrand Reinhold, 1945 
Point Group:  C2v, Symmetry Number:   2  
Rotational constants in cm-1:     0.238626     0.192638     0.106590 

Vibrational entropy computed according to the QRRHO of S. Grimme
Chem.Eur.J. 2012 18 9955


-------
ENTROPY
-------

The entropy contributions are T*S = T*(S(el)+S(vib)+S(rot)+S(trans))
     S(el)   - electronic entropy
     S(vib)  - vibrational entropy
     S(rot)  - rotational entropy
     S(trans)- translational entropy
The entropies will be listed as multiplied by the temperature to get
units of energy

Electronic entropy                ...      0.00000000 Eh      0.00 kcal/mol
Vibrational entropy               ...      0.00217284 Eh      1.36 kcal/mol
Rotational entropy                ...      0.01136720 Eh      7.13 kcal/mol
Translational entropy             ...      0.01848439 Eh     11.60 kcal/mol
-----------------------------------------------------------------------
Final entropy term                ...      0.03202443 Eh     20.10 kcal/mol

In case the symmetry of your molecule has not been determined correctly
or in case you have a reason to use a different symmetry number we print 
out the resulting rotational entropy values for sn=1,12 :
 --------------------------------------------------------
|  sn= 1 | S(rot)=       0.01202166 Eh      7.54 kcal/mol|
|  sn= 2 | S(rot)=       0.01136720 Eh      7.13 kcal/mol|
|  sn= 3 | S(rot)=       0.01098437 Eh      6.89 kcal/mol|
|  sn= 4 | S(rot)=       0.01071274 Eh      6.72 kcal/mol|
|  sn= 5 | S(rot)=       0.01050206 Eh      6.59 kcal/mol|
|  sn= 6 | S(rot)=       0.01032991 Eh      6.48 kcal/mol|
|  sn= 7 | S(rot)=       0.01018437 Eh      6.39 kcal/mol|
|  sn= 8 | S(rot)=       0.01005829 Eh      6.31 kcal/mol|
|  sn= 9 | S(rot)=       0.00994708 Eh      6.24 kcal/mol|
|  sn=10 | S(rot)=       0.00984760 Eh      6.18 kcal/mol|
|  sn=11 | S(rot)=       0.00975761 Eh      6.12 kcal/mol|
|  sn=12 | S(rot)=       0.00967546 Eh      6.07 kcal/mol|
 --------------------------------------------------------


-------------------
GIBBS FREE ENERGY
-------------------

The Gibbs free energy is G = H - T*S

Total enthalpy                    ...   -229.30056017 Eh 
Total entropy correction          ...     -0.03202443 Eh    -20.10 kcal/mol
-----------------------------------------------------------------------
Final Gibbs free energy         ...   -229.33258459 Eh

For completeness - the Gibbs free energy minus the electronic energy
G-E(el)                           ...      0.05373180 Eh     33.72 kcal/mol


Timings for individual modules:

Sum of individual times         ...      244.272 sec (=   4.071 min)
GTO integral calculation        ...        2.466 sec (=   0.041 min)   1.0 %
SCF iterations                  ...      104.360 sec (=   1.739 min)  42.7 %
SCF Gradient evaluation         ...       52.660 sec (=   0.878 min)  21.6 %
Geometry relaxation             ...        0.229 sec (=   0.004 min)   0.1 %
Analytical frequency calculation...       84.558 sec (=   1.409 min)  34.6 %
                             ****ORCA TERMINATED NORMALLY****
TOTAL RUN TIME: 0 days 0 hours 4 minutes 4 seconds 587 msec
