
                                 *****************
                                 * O   R   C   A *
                                 *****************

                                            #,                                       
                                            ###                                      
                                            ####                                     
                                            #####                                    
                                            ######                                   
                                           ########,                                 
                                     ,,################,,,,,                         
                               ,,#################################,,                 
                          ,,##########################################,,             
                       ,#########################################, ''#####,          
                    ,#############################################,,   '####,        
                  ,##################################################,,,,####,       
                ,###########''''           ''''###############################       
              ,#####''   ,,,,##########,,,,          '''####'''          '####       
            ,##' ,,,,###########################,,,                        '##       
           ' ,,###''''                  '''############,,,                           
         ,,##''                                '''############,,,,        ,,,,,,###''
      ,#''                                            '''#######################'''  
     '                                                          ''''####''''         
             ,#######,   #######,   ,#######,      ##                                
            ,#'     '#,  ##    ##  ,#'     '#,    #''#        ######   ,####,        
            ##       ##  ##   ,#'  ##            #'  '#       #        #'  '#        
            ##       ##  #######   ##           ,######,      #####,   #    #        
            '#,     ,#'  ##    ##  '#,     ,#' ,#      #,         ##   #,  ,#        
             '#######'   ##     ##  '#######'  #'      '#     #####' # '####'        



                  #######################################################
                  #                        -***-                        #
                  #          Department of theory and spectroscopy      #
                  #    Directorship and core code : Frank Neese         #
                  #        Max Planck Institute fuer Kohlenforschung    #
                  #                Kaiser Wilhelm Platz 1               #
                  #                 D-45470 Muelheim/Ruhr               #
                  #                      Germany                        #
                  #                                                     #
                  #                  All rights reserved                #
                  #                        -***-                        #
                  #######################################################


                         Program Version 5.0.3 -  RELEASE  -


 With contributions from (in alphabetic order):
   Daniel Aravena         : Magnetic Suceptibility
   Michael Atanasov       : Ab Initio Ligand Field Theory (pilot matlab implementation)
   Alexander A. Auer      : GIAO ZORA, VPT2 properties, NMR spectrum
   Ute Becker             : Parallelization
   Giovanni Bistoni       : ED, misc. LED, open-shell LED, HFLD
   Martin Brehm           : Molecular dynamics
   Dmytro Bykov           : SCF Hessian
   Vijay G. Chilkuri      : MRCI spin determinant printing, contributions to CSF-ICE
   Dipayan Datta          : RHF DLPNO-CCSD density
   Achintya Kumar Dutta   : EOM-CC, STEOM-CC
   Dmitry Ganyushin       : Spin-Orbit,Spin-Spin,Magnetic field MRCI
   Miquel Garcia          : C-PCM and meta-GGA Hessian, CC/C-PCM, Gaussian charge scheme
   Yang Guo               : DLPNO-NEVPT2, F12-NEVPT2, CIM, IAO-localization
   Andreas Hansen         : Spin unrestricted coupled pair/coupled cluster methods
   Benjamin Helmich-Paris : MC-RPA, TRAH-SCF, COSX integrals
   Lee Huntington         : MR-EOM, pCC
   Robert Izsak           : Overlap fitted RIJCOSX, COSX-SCS-MP3, EOM
   Marcus Kettner         : VPT2
   Christian Kollmar      : KDIIS, OOCD, Brueckner-CCSD(T), CCSD density, CASPT2, CASPT2-K
   Simone Kossmann        : Meta GGA functionals, TD-DFT gradient, OOMP2, MP2 Hessian
   Martin Krupicka        : Initial AUTO-CI
   Lucas Lang             : DCDCAS
   Marvin Lechner         : AUTO-CI (C++ implementation), FIC-MRCC
   Dagmar Lenk            : GEPOL surface, SMD
   Dimitrios Liakos       : Extrapolation schemes; Compound Job, initial MDCI parallelization
   Dimitrios Manganas     : Further ROCIS development; embedding schemes
   Dimitrios Pantazis     : SARC Basis sets
   Anastasios Papadopoulos: AUTO-CI, single reference methods and gradients
   Taras Petrenko         : DFT Hessian,TD-DFT gradient, ASA, ECA, R-Raman, ABS, FL, XAS/XES, NRVS
   Peter Pinski           : DLPNO-MP2, DLPNO-MP2 Gradient
   Christoph Reimann      : Effective Core Potentials
   Marius Retegan         : Local ZFS, SOC
   Christoph Riplinger    : Optimizer, TS searches, QM/MM, DLPNO-CCSD(T), (RO)-DLPNO pert. Triples
   Tobias Risthaus        : Range-separated hybrids, TD-DFT gradient, RPA, STAB
   Michael Roemelt        : Original ROCIS implementation
   Masaaki Saitow         : Open-shell DLPNO-CCSD energy and density
   Barbara Sandhoefer     : DKH picture change effects
   Avijit Sen             : IP-ROCIS
   Kantharuban Sivalingam : CASSCF convergence, NEVPT2, FIC-MRCI
   Bernardo de Souza      : ESD, SOC TD-DFT
   Georgi Stoychev        : AutoAux, RI-MP2 NMR, DLPNO-MP2 response
   Willem Van den Heuvel  : Paramagnetic NMR
   Boris Wezisla          : Elementary symmetry handling
   Frank Wennmohs         : Technical directorship


 We gratefully acknowledge several colleagues who have allowed us to
 interface, adapt or use parts of their codes:
   Stefan Grimme, W. Hujo, H. Kruse, P. Pracht,  : VdW corrections, initial TS optimization,
                  C. Bannwarth, S. Ehlert          DFT functionals, gCP, sTDA/sTD-DF
   Ed Valeev, F. Pavosevic, A. Kumar             : LibInt (2-el integral package), F12 methods
   Garnet Chan, S. Sharma, J. Yang, R. Olivares  : DMRG
   Ulf Ekstrom                                   : XCFun DFT Library
   Mihaly Kallay                                 : mrcc  (arbitrary order and MRCC methods)
   Jiri Pittner, Ondrej Demel                    : Mk-CCSD
   Frank Weinhold                                : gennbo (NPA and NBO analysis)
   Christopher J. Cramer and Donald G. Truhlar   : smd solvation model
   Lars Goerigk                                  : TD-DFT with DH, B97 family of functionals
   V. Asgeirsson, H. Jonsson                     : NEB implementation
   FAccTs GmbH                                   : IRC, NEB, NEB-TS, DLPNO-Multilevel, CI-OPT
                                                   MM, QMMM, 2- and 3-layer-ONIOM, Crystal-QMMM,
                                                   LR-CPCM, SF, NACMEs, symmetry and pop. for TD-DFT,
                                                   nearIR, NL-DFT gradient (VV10), updates on ESD,
                                                   ML-optimized integration grids
   S Lehtola, MJT Oliveira, MAL Marques          : LibXC Library
   Liviu Ungur et al                             : ANISO software


 Your calculation uses the libint2 library for the computation of 2-el integrals
 For citations please refer to: http://libint.valeyev.net

 Your ORCA version has been built with support for libXC version: 5.1.0
 For citations please refer to: https://tddft.org/programs/libxc/

 This ORCA versions uses:
   CBLAS   interface :  Fast vector & matrix operations
   LAPACKE interface :  Fast linear algebra routines
   SCALAPACK package :  Parallel linear algebra routines
   Shared memory     :  Shared parallel matrices
   BLAS/LAPACK       :  OpenBLAS 0.3.15  USE64BITINT DYNAMIC_ARCH NO_AFFINITY Haswell SINGLE_THREADED
        Core in use  :  Haswell
   Copyright (c) 2011-2014, The OpenBLAS Project


================================================================================

----- Orbital basis set information -----
Your calculation utilizes the basis: 6-31G*
   H-He, Li-Ne : W. J. Hehre, R. Ditchfield and J.A. Pople, J. Chem. Phys. 56, 2257 (1972).
                 Note: He and Ne are unpublished basis sets taken from the Gaussian program.
                 Note: Li and B from J. D. Dill and J. A. Pople, J. Chem. Phys. 62, 2921 (1975).
   Na - Ar     : M. M. Francl, W. J. Pietro, W. J. Hehre, J. S. Binkley, M. S. Gordon, 
                 D. J. DeFrees and J. A. Pople, J. Chem. Phys. 77, 3654 (1982).
   K - Zn      : V. A. Rassolov, J. A. Pople, M. A. Ratner, and T. L. Windus, J. Chem. Phys. 109, 1223 (1998).

================================================================================
                                        WARNINGS
                       Please study these warnings very carefully!
================================================================================


WARNING: Geometry Optimization
  ===> : Switching off AutoStart
         For restart on a previous wavefunction, please use MOREAD

INFO   : the flag for use of the SHARK integral package has been found!

================================================================================
                                       INPUT FILE
================================================================================
NAME = benzene_hf
|  1> ! HF 6-31g* OPT ANFREQ NoFrozenCore
|  2> 
|  3> *xyz 0 1 
|  4> 
|  5>  C     0.000000     0.000000     0.000000
|  6>  C     0.000000     0.000000     1.400000
|  7>  C     1.212436     0.000000     2.100000
|  8>  C     2.424871     0.000000     1.400000
|  9>  C     2.424871     0.000000     0.000000
| 10>  C     1.212436     0.000000    -0.700000
| 11>  H    -0.943102     0.000000     1.944500
| 12>  H     1.212436     0.000000     3.189000
| 13>  H     3.367973     0.000000     1.944500
| 14>  H     3.367973     0.000000    -0.544500
| 15>  H     1.212436     0.000000    -1.789000
| 16>  H    -1.026719     0.000000    -0.363000
| 17> *
| 18> 
| 19>                          ****END OF INPUT****
================================================================================

                       *****************************
                       * Geometry Optimization Run *
                       *****************************

Geometry optimization settings:
Update method            Update   .... BFGS
Choice of coordinates    CoordSys .... Z-matrix Internals
Initial Hessian          InHess   .... Almoef's Model

Convergence Tolerances:
Energy Change            TolE     ....  5.0000e-06 Eh
Max. Gradient            TolMAXG  ....  3.0000e-04 Eh/bohr
RMS Gradient             TolRMSG  ....  1.0000e-04 Eh/bohr
Max. Displacement        TolMAXD  ....  4.0000e-03 bohr
RMS Displacement         TolRMSD  ....  2.0000e-03 bohr
Strict Convergence                ....  False
------------------------------------------------------------------------------
                        ORCA OPTIMIZATION COORDINATE SETUP
------------------------------------------------------------------------------

The optimization will be done in new redundant internal coordinates
Making redundant internal coordinates   ...  (new redundants) done
Evaluating the initial hessian          ...  (Almloef) done
Evaluating the coordinates              ...  done
Calculating the B-matrix                .... done
Calculating the G-matrix                .... done
Diagonalizing the G-matrix              .... done
The first mode is                       ....   24
The number of degrees of freedom        ....   30

    -----------------------------------------------------------------
                    Redundant Internal Coordinates


    -----------------------------------------------------------------
         Definition                    Initial Value    Approx d2E/dq
    -----------------------------------------------------------------
      1. B(C   1,C   0)                  1.4000         0.602260   
      2. B(C   2,C   1)                  1.4000         0.602259   
      3. B(C   3,C   2)                  1.4000         0.602261   
      4. B(C   4,C   3)                  1.4000         0.602260   
      5. B(C   5,C   4)                  1.4000         0.602261   
      6. B(C   5,C   0)                  1.4000         0.602259   
      7. B(H   6,C   1)                  1.0890         0.361425   
      8. B(H   7,C   2)                  1.0890         0.361425   
      9. B(H   8,C   3)                  1.0890         0.361425   
     10. B(H   9,C   4)                  1.0890         0.361425   
     11. B(H  10,C   5)                  1.0890         0.361425   
     12. B(H  11,C   0)                  1.0890         0.361425   
     13. A(C   1,C   0,H  11)          109.4712         0.351399   
     14. A(C   5,C   0,H  11)          130.5288         0.351399   
     15. A(C   1,C   0,C   5)          120.0000         0.429561   
     16. A(C   0,C   1,C   2)          120.0000         0.429561   
     17. A(C   2,C   1,H   6)          120.0000         0.351399   
     18. A(C   0,C   1,H   6)          120.0000         0.351399   
     19. A(C   3,C   2,H   7)          120.0000         0.351399   
     20. A(C   1,C   2,H   7)          120.0000         0.351399   
     21. A(C   1,C   2,C   3)          120.0000         0.429561   
     22. A(C   2,C   3,C   4)          120.0000         0.429561   
     23. A(C   4,C   3,H   8)          120.0000         0.351399   
     24. A(C   2,C   3,H   8)          120.0000         0.351399   
     25. A(C   5,C   4,H   9)          120.0000         0.351399   
     26. A(C   3,C   4,H   9)          120.0000         0.351399   
     27. A(C   3,C   4,C   5)          120.0000         0.429561   
     28. A(C   0,C   5,H  10)          120.0000         0.351399   
     29. A(C   0,C   5,C   4)          120.0000         0.429561   
     30. A(C   4,C   5,H  10)          120.0000         0.351399   
     31. D(H   6,C   1,C   0,C   5)    180.0000         0.025015   
     32. D(H   6,C   1,C   0,H  11)      0.0000         0.025015   
     33. D(C   2,C   1,C   0,H  11)    180.0000         0.025015   
     34. D(C   2,C   1,C   0,C   5)      0.0000         0.025015   
     35. D(H   7,C   2,C   1,C   0)    180.0000         0.025015   
     36. D(C   3,C   2,C   1,C   0)      0.0000         0.025015   
     37. D(C   3,C   2,C   1,H   6)    180.0000         0.025015   
     38. D(H   7,C   2,C   1,H   6)      0.0000         0.025015   
     39. D(H   8,C   3,C   2,H   7)      0.0000         0.025015   
     40. D(H   8,C   3,C   2,C   1)    180.0000         0.025015   
     41. D(C   4,C   3,C   2,H   7)    180.0000         0.025015   
     42. D(C   4,C   3,C   2,C   1)      0.0000         0.025015   
     43. D(H   9,C   4,C   3,C   2)    180.0000         0.025015   
     44. D(C   5,C   4,C   3,H   8)    180.0000         0.025015   
     45. D(C   5,C   4,C   3,C   2)      0.0000         0.025015   
     46. D(H   9,C   4,C   3,H   8)      0.0000         0.025015   
     47. D(H  10,C   5,C   4,H   9)      0.0000         0.025015   
     48. D(C   0,C   5,C   4,H   9)    180.0000         0.025015   
     49. D(C   0,C   5,C   4,C   3)      0.0000         0.025015   
     50. D(H  10,C   5,C   0,H  11)      0.0000         0.025015   
     51. D(H  10,C   5,C   0,C   1)    180.0000         0.025015   
     52. D(H  10,C   5,C   4,C   3)    180.0000         0.025015   
     53. D(C   4,C   5,C   0,H  11)    180.0000         0.025015   
     54. D(C   4,C   5,C   0,C   1)      0.0000         0.025015   
    -----------------------------------------------------------------

Number of atoms                         .... 12
Number of degrees of freedom            .... 54

         *************************************************************
         *                GEOMETRY OPTIMIZATION CYCLE   1            *
         *************************************************************
---------------------------------
CARTESIAN COORDINATES (ANGSTROEM)
---------------------------------
  C      0.000000    0.000000    0.000000
  C      0.000000    0.000000    1.400000
  C      1.212436    0.000000    2.100000
  C      2.424871    0.000000    1.400000
  C      2.424871    0.000000    0.000000
  C      1.212436    0.000000   -0.700000
  H     -0.943102    0.000000    1.944500
  H      1.212436    0.000000    3.189000
  H      3.367973    0.000000    1.944500
  H      3.367973    0.000000   -0.544500
  H      1.212436    0.000000   -1.789000
  H     -1.026719    0.000000   -0.363000

----------------------------
CARTESIAN COORDINATES (A.U.)
----------------------------
  NO LB      ZA    FRAG     MASS         X           Y           Z
   0 C     6.0000    0    12.011    0.000000    0.000000    0.000000
   1 C     6.0000    0    12.011    0.000000    0.000000    2.645617
   2 C     6.0000    0    12.011    2.291172    0.000000    3.968425
   3 C     6.0000    0    12.011    4.582342    0.000000    2.645617
   4 C     6.0000    0    12.011    4.582342    0.000000    0.000000
   5 C     6.0000    0    12.011    2.291172    0.000000   -1.322808
   6 H     1.0000    0     1.008   -1.782204    0.000000    3.674572
   7 H     1.0000    0     1.008    2.291172    0.000000    6.026337
   8 H     1.0000    0     1.008    6.364547    0.000000    3.674572
   9 H     1.0000    0     1.008    6.364547    0.000000   -1.028956
  10 H     1.0000    0     1.008    2.291172    0.000000   -3.380720
  11 H     1.0000    0     1.008   -1.940218    0.000000   -0.685971

--------------------------------
INTERNAL COORDINATES (ANGSTROEM)
--------------------------------
 C      0   0   0     0.000000000000     0.00000000     0.00000000
 C      1   0   0     1.400000000000     0.00000000     0.00000000
 C      2   1   0     1.400000376463   119.99999110     0.00000000
 C      3   2   1     1.399999510437   119.99999733     0.00000000
 C      4   3   2     1.400000000000   120.00001157     0.00000000
 C      5   4   3     1.399999510437   120.00001157     0.00000000
 H      2   1   3     1.089000290360   119.99999118   180.00000085
 H      3   2   1     1.089000000000   119.99999110   180.00000000
 H      4   3   2     1.089000290360   119.99999725   180.00000085
 H      5   4   3     1.089000290360   119.99999118   180.00000085
 H      6   5   4     1.089000000000   120.00001157   180.00000000
 H      1   2   3     1.088999956364   109.47122145   180.00000085

---------------------------
INTERNAL COORDINATES (A.U.)
---------------------------
 C      0   0   0     0.000000000000     0.00000000     0.00000000
 C      1   0   0     2.645616587490     0.00000000     0.00000000
 C      2   1   0     2.645617298901   119.99999110     0.00000000
 C      3   2   1     2.645615662351   119.99999733     0.00000000
 C      4   3   2     2.645616587490   120.00001157     0.00000000
 C      5   4   3     2.645615662351   120.00001157     0.00000000
 H      2   1   3     2.057912308541   119.99999118   180.00000085
 H      3   2   1     2.057911759840   119.99999110   180.00000000
 H      4   3   2     2.057912308541   119.99999725   180.00000085
 H      5   4   3     2.057912308541   119.99999118   180.00000085
 H      6   5   4     2.057911759840   120.00001157   180.00000000
 H      1   2   3     2.057911677380   109.47122145   180.00000085

---------------------
BASIS SET INFORMATION
---------------------
There are 2 groups of distinct atoms

 Group   1 Type C   : 10s4p1d contracted to 3s2p1d pattern {631/31/1}
 Group   2 Type H   : 4s contracted to 2s pattern {31}

Atom   0C    basis set group =>   1
Atom   1C    basis set group =>   1
Atom   2C    basis set group =>   1
Atom   3C    basis set group =>   1
Atom   4C    basis set group =>   1
Atom   5C    basis set group =>   1
Atom   6H    basis set group =>   2
Atom   7H    basis set group =>   2
Atom   8H    basis set group =>   2
Atom   9H    basis set group =>   2
Atom  10H    basis set group =>   2
Atom  11H    basis set group =>   2
------------------------------------------------------------------------------
                           ORCA GTO INTEGRAL CALCULATION
------------------------------------------------------------------------------
------------------------------------------------------------------------------
                   ___                                                        
                  /   \      - P O W E R E D   B Y -                         
                 /     \                                                     
                 |  |  |   _    _      __       _____    __    __             
                 |  |  |  | |  | |    /  \     |  _  \  |  |  /  |          
                  \  \/   | |  | |   /    \    | | | |  |  | /  /          
                 / \  \   | |__| |  /  /\  \   | |_| |  |  |/  /          
                |  |  |   |  __  | /  /__\  \  |    /   |      \           
                |  |  |   | |  | | |   __   |  |    \   |  |\   \          
                \     /   | |  | | |  |  |  |  | |\  \  |  | \   \       
                 \___/    |_|  |_| |__|  |__|  |_| \__\ |__|  \__/        
                                                                              
                      - O R C A' S   B I G   F R I E N D -                    
                                      &                                       
                       - I N T E G R A L  F E E D E R -                       
                                                                              
 v1 FN, 2020, v2 2021                                                         
------------------------------------------------------------------------------


Reading SHARK input file benzene_hf.SHARKINP.tmp ... ok
----------------------
SHARK INTEGRAL PACKAGE
----------------------

Number of atoms                             ...     12
Number of basis functions                   ...     96
Number of shells                            ...     48
Maximum angular momentum                    ...      2
Integral batch strategy                     ... SHARK/LIBINT Hybrid
RI-J (if used) integral strategy            ... SPLIT-RIJ (Revised 2003 algorithm where possible)
Printlevel                                  ...      1
Contraction scheme used                     ... SEGMENTED contraction
Coulomb Range Separation                    ... NOT USED
Exchange Range Separation                   ... NOT USED
Finite Nucleus Model                        ... NOT USED
Auxiliary Coulomb fitting basis             ... NOT available
Auxiliary J/K fitting basis                 ... NOT available
Auxiliary Correlation fitting basis         ... NOT available
Auxiliary 'external' fitting basis          ... NOT available
Integral threshold                          ...     2.500000e-11
Primitive cut-off                           ...     2.500000e-12
Primitive pair pre-selection threshold      ...     2.500000e-12

Calculating pre-screening integrals         ... done (  0.1 sec) Dimension = 48
Organizing shell pair data                  ... done (  0.0 sec)
Shell pair information
Total number of shell pairs                 ...      1176
Shell pairs after pre-screening             ...      1158
Total number of primitive shell pairs       ...      6699
Primitive shell pairs kept                  ...      4824
          la=0 lb=0:    447 shell pairs
          la=1 lb=0:    360 shell pairs
          la=1 lb=1:     78 shell pairs
          la=2 lb=0:    180 shell pairs
          la=2 lb=1:     72 shell pairs
          la=2 lb=2:     21 shell pairs

Calculating one electron integrals          ... done (  0.0 sec)
Calculating Nuclear repulsion               ... done (  0.0 sec) ENN=    202.748481991232 Eh

SHARK setup successfully completed in   0.7 seconds

Maximum memory used throughout the entire GTOINT-calculation: 10.6 MB
-------------------------------------------------------------------------------
                                 ORCA SCF
-------------------------------------------------------------------------------

------------
SCF SETTINGS
------------
Hamiltonian:
 Ab initio Hamiltonian  Method          .... Hartree-Fock(GTOs)


General Settings:
 Integral files         IntName         .... benzene_hf
 Hartree-Fock type      HFTyp           .... RHF
 Total Charge           Charge          ....    0
 Multiplicity           Mult            ....    1
 Number of Electrons    NEL             ....   42
 Basis Dimension        Dim             ....   96
 Nuclear Repulsion      ENuc            ....    202.7484819912 Eh

Convergence Acceleration:
 DIIS                   CNVDIIS         .... on
   Start iteration      DIISMaxIt       ....    12
   Startup error        DIISStart       ....  0.200000
   # of expansion vecs  DIISMaxEq       ....     5
   Bias factor          DIISBfac        ....   1.050
   Max. coefficient     DIISMaxC        ....  10.000
 Trust-Rad. Augm. Hess. CNVTRAH         .... auto
   Auto Start mean grad. ratio tolernc. ....  1.125000
   Auto Start start iteration           ....    20
   Auto Start num. interpolation iter.  ....    10
   Max. Number of Micro iterations      ....    16
   Max. Number of Macro iterations      .... Maxiter - #DIIS iter
   Number of Davidson start vectors     ....     2
   Converg. threshold I  (grad. norm)   ....   1.000e-05
   Converg. threshold II (energy diff.) ....   1.000e-08
   Grad. Scal. Fac. for Micro threshold ....   0.100
   Minimum threshold for Micro iter.    ....   0.010
   NR start threshold (gradient norm)   ....   0.001
   Initial trust radius                 ....   0.400
   Minimum AH scaling param. (alpha)    ....   1.000
   Maximum AH scaling param. (alpha)    .... 1000.000
   Orbital update algorithm             .... Taylor
   White noise on init. David. guess    .... on
   Maximum white noise                  ....   0.010
   Quad. conv. algorithm                .... NR
 SOSCF                  CNVSOSCF        .... on
   Start iteration      SOSCFMaxIt      ....   150
   Startup grad/error   SOSCFStart      ....  0.003300
 Level Shifting         CNVShift        .... on
   Level shift para.    LevelShift      ....    0.2500
   Turn off err/grad.   ShiftErr        ....    0.0010
 Zerner damping         CNVZerner       .... off
 Static damping         CNVDamp         .... on
   Fraction old density DampFac         ....    0.7000
   Max. Damping (<1)    DampMax         ....    0.9800
   Min. Damping (>=0)   DampMin         ....    0.0000
   Turn off err/grad.   DampErr         ....    0.1000
 Fernandez-Rico         CNVRico         .... off

SCF Procedure:
 Maximum # iterations   MaxIter         ....   125
 SCF integral mode      SCFMode         .... Direct
   Integral package                     .... SHARK and LIBINT hybrid scheme
 Reset frequency        DirectResetFreq ....    20
 Integral Threshold     Thresh          ....  2.500e-11 Eh
 Primitive CutOff       TCut            ....  2.500e-12 Eh

Convergence Tolerance:
 Convergence Check Mode ConvCheckMode   .... Total+1el-Energy
 Convergence forced     ConvForced      .... 0
 Energy Change          TolE            ....  1.000e-08 Eh
 1-El. energy change                    ....  1.000e-05 Eh
 Orbital Gradient       TolG            ....  1.000e-05
 Orbital Rotation angle TolX            ....  1.000e-05
 DIIS Error             TolErr          ....  5.000e-07


Diagonalization of the overlap matrix:
Smallest eigenvalue                        ... 5.604e-04
Time for diagonalization                   ...    0.002 sec
Threshold for overlap eigenvalues          ... 1.000e-08
Number of eigenvalues below threshold      ... 0
Time for construction of square roots      ...    0.000 sec
Total time needed                          ...    0.003 sec

Time for model grid setup =    0.149 sec

------------------------------
INITIAL GUESS: MODEL POTENTIAL
------------------------------
Loading Hartree-Fock densities                     ... done
Calculating cut-offs                               ... done
Initializing the effective Hamiltonian             ... done
Setting up the integral package (SHARK)            ... done
Starting the Coulomb interaction                   ... done (   0.1 sec)
Reading the grid                                   ... done
Mapping shells                                     ... done
Starting the XC term evaluation                    ... done (   0.1 sec)
Transforming the Hamiltonian                       ... done (   0.0 sec)
Diagonalizing the Hamiltonian                      ... done (   0.0 sec)
Back transforming the eigenvectors                 ... done (   0.0 sec)
Now organizing SCF variables                       ... done
                      ------------------
                      INITIAL GUESS DONE (   0.4 sec)
                      ------------------
--------------
SCF ITERATIONS
--------------
ITER       Energy         Delta-E        Max-DP      RMS-DP      [F,P]     Damp
               ***  Starting incremental Fock matrix formation  ***
  0   -230.4695150150   0.000000000000 0.03974993  0.00277758  0.1583660 0.7000
  1   -230.5470140182  -0.077499003207 0.03075758  0.00219393  0.1050708 0.7000
                               ***Turning on DIIS***
  2   -230.5954938036  -0.048479785340 0.06636967  0.00496560  0.0637196 0.0000
  3   -230.2742629824   0.321230821210 0.01194152  0.00104136  0.0240514 0.0000
  4   -230.6977065764  -0.423443594073 0.00354556  0.00036357  0.0042525 0.0000
                      *** Initiating the SOSCF procedure ***
                           *** Shutting down DIIS ***
                      *** Re-Reading the Fockian *** 
                      *** Removing any level shift *** 
ITER      Energy       Delta-E        Grad      Rot      Max-DP    RMS-DP
  5   -230.69794615  -0.0002395704  0.001453  0.001453  0.001645  0.000152
               *** Restarting incremental Fock matrix formation ***
  6   -230.69576312   0.0021830226  0.000323  0.000327  0.000516  0.000046
  7   -230.69576493  -0.0000018063  0.000111  0.000141  0.000209  0.000019
  8   -230.69576513  -0.0000002004  0.000018  0.000039  0.000027  0.000001
  9   -230.69576513  -0.0000000036  0.000009  0.000013  0.000008  0.000001
 10   -230.69576514  -0.0000000019  0.000003  0.000015  0.000008  0.000000
                  ***Gradient check signals convergence***
              ***Rediagonalizing the Fockian in SOSCF/NRSCF***

               *****************************************************
               *                     SUCCESS                       *
               *           SCF CONVERGED AFTER  11 CYCLES          *
               *****************************************************


----------------
TOTAL SCF ENERGY
----------------

Total Energy       :         -230.69576514 Eh           -6277.55091 eV

Components:
Nuclear Repulsion  :          202.74848199 Eh            5517.06668 eV
Electronic Energy  :         -433.44424713 Eh          -11794.61759 eV
One Electron Energy:         -712.05981229 Eh          -19376.13256 eV
Two Electron Energy:          278.61556516 Eh            7581.51496 eV

Virial components:
Potential Energy   :         -461.12309305 Eh          -12547.79728 eV
Kinetic Energy     :          230.42732792 Eh            6270.24637 eV
Virial Ratio       :            2.00116495


---------------
SCF CONVERGENCE
---------------

  Last Energy change         ...   -5.1449e-10  Tolerance :   1.0000e-08
  Last MAX-Density change    ...    2.2178e-06  Tolerance :   1.0000e-07
  Last RMS-Density change    ...    1.3408e-07  Tolerance :   5.0000e-09
  Last Orbital Gradient      ...    7.8501e-07  Tolerance :   1.0000e-05
  Last Orbital Rotation      ...    3.9672e-06  Tolerance :   1.0000e-05

             **** THE GBW FILE WAS UPDATED (benzene_hf.gbw) ****
             **** DENSITY benzene_hf.scfp WAS UPDATED ****
             **** ENERGY FILE WAS UPDATED (benzene_hf.en.tmp) ****
             **** THE GBW FILE WAS UPDATED (benzene_hf.gbw) ****
             **** DENSITY benzene_hf.scfp WAS UPDATED ****
----------------
ORBITAL ENERGIES
----------------

  NO   OCC          E(Eh)            E(eV) 
   0   2.0000     -11.235995      -305.7470 
   1   2.0000     -11.233960      -305.6916 
   2   2.0000     -11.232658      -305.6562 
   3   2.0000     -11.232506      -305.6520 
   4   2.0000     -11.231267      -305.6183 
   5   2.0000     -11.229517      -305.5707 
   6   2.0000      -1.139979       -31.0204 
   7   2.0000      -1.007949       -27.4277 
   8   2.0000      -1.005101       -27.3502 
   9   2.0000      -0.820542       -22.3281 
  10   2.0000      -0.812416       -22.1070 
  11   2.0000      -0.700031       -19.0488 
  12   2.0000      -0.638843       -17.3838 
  13   2.0000      -0.610361       -16.6088 
  14   2.0000      -0.580535       -15.7972 
  15   2.0000      -0.578029       -15.7290 
  16   2.0000      -0.492897       -13.4124 
  17   2.0000      -0.492369       -13.3980 
  18   2.0000      -0.481822       -13.1110 
  19   2.0000      -0.328792        -8.9469 
  20   2.0000      -0.328757        -8.9459 
  21   0.0000       0.145370         3.9557 
  22   0.0000       0.146154         3.9771 
  23   0.0000       0.231853         6.3090 
  24   0.0000       0.288605         7.8533 
  25   0.0000       0.293096         7.9756 
  26   0.0000       0.321965         8.7611 
  27   0.0000       0.331188         9.0121 
  28   0.0000       0.339528         9.2390 
  29   0.0000       0.363651         9.8954 
  30   0.0000       0.463271        12.6062 
  31   0.0000       0.473584        12.8869 
  32   0.0000       0.487403        13.2629 
  33   0.0000       0.500357        13.6154 
  34   0.0000       0.659432        17.9441 
  35   0.0000       0.741856        20.1869 
  36   0.0000       0.756729        20.5916 
  37   0.0000       0.763208        20.7680 
  38   0.0000       0.778504        21.1842 
  39   0.0000       0.801714        21.8158 
  40   0.0000       0.833001        22.6671 
  41   0.0000       0.833209        22.6728 
  42   0.0000       0.847234        23.0544 
  43   0.0000       0.849096        23.1051 
  44   0.0000       0.854349        23.2480 
  45   0.0000       0.862178        23.4611 
  46   0.0000       0.912747        24.8371 
  47   0.0000       0.913685        24.8626 
  48   0.0000       0.993972        27.0473 
  49   0.0000       1.109835        30.2001 
  50   0.0000       1.111345        30.2412 
  51   0.0000       1.113469        30.2990 
  52   0.0000       1.119796        30.4712 
  53   0.0000       1.126290        30.6479 
  54   0.0000       1.186142        32.2766 
  55   0.0000       1.189719        32.3739 
  56   0.0000       1.202585        32.7240 
  57   0.0000       1.239960        33.7410 
  58   0.0000       1.297597        35.3094 
  59   0.0000       1.314875        35.7796 
  60   0.0000       1.372431        37.3458 
  61   0.0000       1.403729        38.1974 
  62   0.0000       1.463468        39.8230 
  63   0.0000       1.517156        41.2839 
  64   0.0000       1.664421        45.2912 
  65   0.0000       1.692721        46.0613 
  66   0.0000       1.698891        46.2292 
  67   0.0000       1.762904        47.9711 
  68   0.0000       1.764898        48.0253 
  69   0.0000       1.794190        48.8224 
  70   0.0000       1.795355        48.8541 
  71   0.0000       2.057502        55.9875 
  72   0.0000       2.088167        56.8219 
  73   0.0000       2.146865        58.4192 
  74   0.0000       2.164275        58.8929 
  75   0.0000       2.288636        62.2770 
  76   0.0000       2.300156        62.5904 
  77   0.0000       2.384982        64.8987 
  78   0.0000       2.399749        65.3005 
  79   0.0000       2.462756        67.0150 
  80   0.0000       2.464716        67.0683 
  81   0.0000       2.467890        67.1547 
  82   0.0000       2.478031        67.4307 
  83   0.0000       2.631507        71.6069 
  84   0.0000       2.632469        71.6331 
  85   0.0000       2.640441        71.8500 
  86   0.0000       2.871943        78.1495 
  87   0.0000       2.881166        78.4005 
  88   0.0000       2.991287        81.3970 
  89   0.0000       3.041361        82.7597 
  90   0.0000       3.063834        83.3712 
  91   0.0000       3.078690        83.7754 
  92   0.0000       3.079598        83.8001 
  93   0.0000       3.100760        84.3760 
  94   0.0000       3.389345        92.2288 
  95   0.0000       3.764759       102.4443 

                    ********************************
                    * MULLIKEN POPULATION ANALYSIS *
                    ********************************

-----------------------
MULLIKEN ATOMIC CHARGES
-----------------------
   0 C :   -0.201110
   1 C :   -0.206034
   2 C :   -0.200521
   3 C :   -0.202514
   4 C :   -0.201782
   5 C :   -0.201588
   6 H :    0.200367
   7 H :    0.199854
   8 H :    0.202139
   9 H :    0.204312
  10 H :    0.203345
  11 H :    0.203532
Sum of atomic charges:    0.0000000

--------------------------------
MULLIKEN REDUCED ORBITAL CHARGES
--------------------------------
  0 C s       :     3.173755  s :     3.173755
      pz      :     0.945840  p :     2.981373
      px      :     1.046469
      py      :     0.989064
      dz2     :     0.013739  d :     0.045982
      dxz     :     0.013327
      dyz     :     0.006108
      dx2y2   :     0.008958
      dxy     :     0.003849
  1 C s       :     3.176037  s :     3.176037
      pz      :     0.956354  p :     2.983774
      px      :     1.038920
      py      :     0.988500
      dz2     :     0.011594  d :     0.046222
      dxz     :     0.017350
      dyz     :     0.005965
      dx2y2   :     0.007516
      dxy     :     0.003797
  2 C s       :     3.175438  s :     3.175438
      pz      :     1.075050  p :     2.979180
      px      :     0.917464
      py      :     0.986665
      dz2     :     0.015431  d :     0.045902
      dxz     :     0.013450
      dyz     :     0.002782
      dx2y2   :     0.007169
      dxy     :     0.007070
  3 C s       :     3.174822  s :     3.174822
      pz      :     0.954935  p :     2.981756
      px      :     1.036407
      py      :     0.990414
      dz2     :     0.011773  d :     0.045936
      dxz     :     0.016768
      dyz     :     0.006037
      dx2y2   :     0.007491
      dxy     :     0.003867
  4 C s       :     3.174342  s :     3.174342
      pz      :     0.954505  p :     2.981445
      px      :     1.035239
      py      :     0.991701
      dz2     :     0.011696  d :     0.045995
      dxz     :     0.016822
      dyz     :     0.006077
      dx2y2   :     0.007485
      dxy     :     0.003915
  5 C s       :     3.173155  s :     3.173155
      pz      :     1.077008  p :     2.982324
      px      :     0.911179
      py      :     0.994137
      dz2     :     0.015425  d :     0.046109
      dxz     :     0.013441
      dyz     :     0.002840
      dx2y2   :     0.007193
      dxy     :     0.007211
  6 H s       :     0.799633  s :     0.799633
  7 H s       :     0.800146  s :     0.800146
  8 H s       :     0.797861  s :     0.797861
  9 H s       :     0.795688  s :     0.795688
 10 H s       :     0.796655  s :     0.796655
 11 H s       :     0.796468  s :     0.796468


                     *******************************
                     * LOEWDIN POPULATION ANALYSIS *
                     *******************************

----------------------
LOEWDIN ATOMIC CHARGES
----------------------
   0 C :   -0.139891
   1 C :   -0.140033
   2 C :   -0.137217
   3 C :   -0.137491
   4 C :   -0.136572
   5 C :   -0.135573
   6 H :    0.135854
   7 H :    0.136115
   8 H :    0.137298
   9 H :    0.138446
  10 H :    0.138324
  11 H :    0.140739

-------------------------------
LOEWDIN REDUCED ORBITAL CHARGES
-------------------------------
  0 C s       :     2.915863  s :     2.915863
      pz      :     1.070621  p :     3.131945
      px      :     1.080024
      py      :     0.981299
      dz2     :     0.029859  d :     0.092084
      dxz     :     0.029468
      dyz     :     0.011630
      dx2y2   :     0.014738
      dxy     :     0.006389
  1 C s       :     2.918057  s :     2.918057
      pz      :     1.073493  p :     3.129105
      px      :     1.075404
      py      :     0.980208
      dz2     :     0.025730  d :     0.092871
      dxz     :     0.036635
      dyz     :     0.011507
      dx2y2   :     0.012711
      dxy     :     0.006289
  2 C s       :     2.917054  s :     2.917054
      pz      :     1.079921  p :     3.128060
      px      :     1.069043
      py      :     0.979096
      dz2     :     0.028951  d :     0.092103
      dxz     :     0.029628
      dyz     :     0.003758
      dx2y2   :     0.015652
      dxy     :     0.014114
  3 C s       :     2.916222  s :     2.916222
      pz      :     1.069850  p :     3.129183
      px      :     1.076997
      py      :     0.982336
      dz2     :     0.026104  d :     0.092086
      dxz     :     0.035443
      dyz     :     0.011590
      dx2y2   :     0.012607
      dxy     :     0.006343
  4 C s       :     2.915710  s :     2.915710
      pz      :     1.070248  p :     3.128724
      px      :     1.075020
      py      :     0.983457
      dz2     :     0.025903  d :     0.092138
      dxz     :     0.035580
      dyz     :     0.011656
      dx2y2   :     0.012572
      dxy     :     0.006426
  5 C s       :     2.913919  s :     2.913919
      pz      :     1.080888  p :     3.129467
      px      :     1.062756
      py      :     0.985822
      dz2     :     0.028923  d :     0.092187
      dxz     :     0.029618
      dyz     :     0.003791
      dx2y2   :     0.015565
      dxy     :     0.014290
  6 H s       :     0.864146  s :     0.864146
  7 H s       :     0.863885  s :     0.863885
  8 H s       :     0.862702  s :     0.862702
  9 H s       :     0.861554  s :     0.861554
 10 H s       :     0.861676  s :     0.861676
 11 H s       :     0.859261  s :     0.859261


                      *****************************
                      * MAYER POPULATION ANALYSIS *
                      *****************************

  NA   - Mulliken gross atomic population
  ZA   - Total nuclear charge
  QA   - Mulliken gross atomic charge
  VA   - Mayer's total valence
  BVA  - Mayer's bonded valence
  FA   - Mayer's free valence

  ATOM       NA         ZA         QA         VA         BVA        FA
  0 C      6.2011     6.0000    -0.2011     3.8993     3.8993    -0.0000
  1 C      6.2060     6.0000    -0.2060     3.8938     3.8938     0.0000
  2 C      6.2005     6.0000    -0.2005     3.9053     3.9053     0.0000
  3 C      6.2025     6.0000    -0.2025     3.9006     3.9006     0.0000
  4 C      6.2018     6.0000    -0.2018     3.8977     3.8977    -0.0000
  5 C      6.2016     6.0000    -0.2016     3.9057     3.9057     0.0000
  6 H      0.7996     1.0000     0.2004     0.9276     0.9276     0.0000
  7 H      0.8001     1.0000     0.1999     0.9273     0.9273     0.0000
  8 H      0.7979     1.0000     0.2021     0.9269     0.9269     0.0000
  9 H      0.7957     1.0000     0.2043     0.9265     0.9265     0.0000
 10 H      0.7967     1.0000     0.2033     0.9262     0.9262     0.0000
 11 H      0.7965     1.0000     0.2035     0.9263     0.9263    -0.0000

  Mayer bond orders larger than 0.100000
B(  0-C ,  1-C ) :   1.4443 B(  0-C ,  5-C ) :   1.4534 B(  0-C , 11-H ) :   0.9412 
B(  1-C ,  2-C ) :   1.4511 B(  1-C ,  6-H ) :   0.9435 B(  2-C ,  3-C ) :   1.4525 
B(  2-C ,  7-H ) :   0.9420 B(  3-C ,  4-C ) :   1.4468 B(  3-C ,  8-H ) :   0.9416 
B(  4-C ,  5-C ) :   1.4485 B(  4-C ,  9-H ) :   0.9413 B(  5-C , 10-H ) :   0.9399 


-------
TIMINGS
-------

Total SCF time: 0 days 0 hours 0 min 14 sec 

Total time                  ....      14.469 sec
Sum of individual times     ....      14.278 sec  ( 98.7%)

Fock matrix formation       ....      13.881 sec  ( 95.9%)
Diagonalization             ....       0.013 sec  (  0.1%)
Density matrix formation    ....       0.001 sec  (  0.0%)
Population analysis         ....       0.002 sec  (  0.0%)
Initial guess               ....       0.224 sec  (  1.6%)
Orbital Transformation      ....       0.000 sec  (  0.0%)
Orbital Orthonormalization  ....       0.000 sec  (  0.0%)
DIIS solution               ....       0.002 sec  (  0.0%)
SOSCF solution              ....       0.005 sec  (  0.0%)

Maximum memory used throughout the entire SCF-calculation: 233.7 MB

-------------------------   --------------------
FINAL SINGLE POINT ENERGY      -230.695765137002
-------------------------   --------------------

------------------------------------------------------------------------------
                         ORCA SCF GRADIENT CALCULATION
------------------------------------------------------------------------------

Gradient of the Hartree-Fock SCF energy:
Hartree-Fock type                ... RHF
Number of operators              ...    1
Number of atoms                  ...   12
Basis set dimensions             ...   96
Integral neglect threshold       ... 2.5e-11
Integral primitive cutoff        ... 2.5e-12
SHARK Integral package           ... ON

Nuc. rep. gradient       (SHARK) ... done (  0.0 sec)
HCore & Overlap gradient (SHARK) ... done (  0.1 sec)
Two-Electron gradient    (SHARK) ... done (  5.2 sec)

------------------
CARTESIAN GRADIENT
------------------

   1   C   :    0.008404071   -0.000000000   -0.028014033
   2   C   :   -0.017029376    0.000000000   -0.002145488
   3   C   :    0.000121552   -0.000000000    0.002214968
   4   C   :    0.004284950   -0.000000000    0.001852764
   5   C   :    0.005831399    0.000000000   -0.003550641
   6   C   :    0.007735833   -0.000000000    0.003260760
   7   H   :   -0.008847279    0.000000000    0.005458705
   8   H   :   -0.000578231   -0.000000000    0.009874838
   9   H   :    0.008790388   -0.000000000    0.005141483
  10   H   :    0.009301526    0.000000000   -0.004758494
  11   H   :   -0.000510042    0.000000000   -0.010021932
  12   H   :   -0.017504790    0.000000000    0.020687070

Difference to translation invariance:
           :   -0.0000000000   -0.0000000000   -0.0000000000

Difference to rotation invariance:
           :    0.0000000000   -0.0000001358   -0.0000000000

Norm of the cartesian gradient     ...    0.0504745219
RMS gradient                       ...    0.0084124203
MAX gradient                       ...    0.0280140333

-------
TIMINGS
-------

Total SCF gradient time            ...        5.559 sec

One electron gradient       ....       0.106 sec  (  1.9%)
Two electron gradient       ....       5.228 sec  ( 94.0%)

Maximum memory used throughout the entire SCFGRAD-calculation: 22.3 MB
------------------------------------------------------------------------------
                         ORCA GEOMETRY RELAXATION STEP
------------------------------------------------------------------------------

Reading the OPT-File                    .... done
Getting information on internals        .... done
Copying old internal coords+grads       .... done
Making the new internal coordinates     .... (new redundants).... done
Validating the new internal coordinates .... (new redundants).... done
Calculating the B-matrix                .... done
Calculating the G,G- and P matrices     .... done
Transforming gradient to internals      .... done
Projecting the internal gradient        .... done
Number of atoms                         ....  12
Number of internal coordinates          ....  54
Current Energy                          ....  -230.695765137 Eh
Current gradient norm                   ....     0.050474522 Eh/bohr
Maximum allowed component of the step   ....  0.300
Current trust radius                    ....  0.300
Evaluating the initial hessian          ....  (Almloef) done
Projecting the Hessian                  .... done
Forming the augmented Hessian           .... done
Diagonalizing the augmented Hessian     .... done
Last element of RFO vector              ....  0.990765698
Lowest eigenvalues of augmented Hessian:
 -0.007660064  0.025015034  0.025015050  0.025015054  0.025015096
Length of the computed step             ....  0.136848846
The final length of the internal step   ....  0.136848846
Converting the step to cartesian space:
 Initial RMS(Int)=    0.0186227691
Transforming coordinates:
 Iter   0:  RMS(Cart)=    0.0326268202 RMS(Int)=    2.2622818919
 Iter   1:  RMS(Cart)=    0.0008129365 RMS(Int)=    0.0006788685
 Iter   2:  RMS(Cart)=    0.0000492099 RMS(Int)=    0.0000322846
 Iter   3:  RMS(Cart)=    0.0000036257 RMS(Int)=    0.0000029907
 Iter   4:  RMS(Cart)=    0.0000002150 RMS(Int)=    0.0000001457
 Iter   5:  RMS(Cart)=    0.0000000160 RMS(Int)=    0.0000000129
done
Storing new coordinates                 .... done

                                .--------------------.
          ----------------------|Geometry convergence|-------------------------
          Item                value                   Tolerance       Converged
          ---------------------------------------------------------------------
          RMS gradient        0.0078273139            0.0001000000      NO
          MAX gradient        0.0268155898            0.0003000000      NO
          RMS step            0.0186227691            0.0020000000      NO
          MAX step            0.0743101919            0.0040000000      NO
          ........................................................
          Max(Bonds)      0.0163      Max(Angles)    4.26
          Max(Dihed)        0.00      Max(Improp)    0.00
          ---------------------------------------------------------------------

The optimization has not yet converged - more geometry cycles are needed


    ---------------------------------------------------------------------------
                         Redundant Internal Coordinates
                            (Angstroem and degrees)

        Definition                    Value    dE/dq     Step     New-Value
    ----------------------------------------------------------------------------
     1. B(C   1,C   0)                1.4000  0.008330 -0.0071    1.3929   
     2. B(C   2,C   1)                1.4000  0.014533 -0.0125    1.3875   
     3. B(C   3,C   2)                1.4000  0.015957 -0.0138    1.3862   
     4. B(C   4,C   3)                1.4000  0.014067 -0.0123    1.3877   
     5. B(C   5,C   4)                1.4000  0.014888 -0.0130    1.3870   
     6. B(C   5,C   0)                1.4000  0.018768 -0.0163    1.3837   
     7. B(H   6,C   1)                1.0890  0.010391 -0.0149    1.0741   
     8. B(H   7,C   2)                1.0890  0.009875 -0.0142    1.0748   
     9. B(H   8,C   3)                1.0890  0.010183 -0.0146    1.0744   
    10. B(H   9,C   4)                1.0890  0.010435 -0.0150    1.0740   
    11. B(H  10,C   5)                1.0890  0.010022 -0.0144    1.0746   
    12. B(H  11,C   0)                1.0890  0.009608 -0.0138    1.0752   
    13. A(C   1,C   0,H  11)          109.47 -0.026816    4.26    113.73   
    14. A(C   5,C   0,H  11)          130.53  0.025330   -4.06    126.47   
    15. A(C   1,C   0,C   5)          120.00  0.001486   -0.19    119.81   
    16. A(C   0,C   1,C   2)          120.00 -0.002074    0.32    120.32   
    17. A(C   2,C   1,H   6)          120.00  0.000724   -0.11    119.89   
    18. A(C   0,C   1,H   6)          120.00  0.001349   -0.21    119.79   
    19. A(C   3,C   2,H   7)          120.00 -0.000565    0.06    120.06   
    20. A(C   1,C   2,H   7)          120.00 -0.001755    0.25    120.25   
    21. A(C   1,C   2,C   3)          120.00  0.002320   -0.31    119.69   
    22. A(C   2,C   3,C   4)          120.00  0.000041   -0.02    119.98   
    23. A(C   4,C   3,H   8)          120.00  0.000039   -0.00    120.00   
    24. A(C   2,C   3,H   8)          120.00 -0.000079    0.02    120.02   
    25. A(C   5,C   4,H   9)          120.00  0.001843   -0.25    119.75   
    26. A(C   3,C   4,H   9)          120.00  0.000753   -0.08    119.92   
    27. A(C   3,C   4,C   5)          120.00 -0.002596    0.34    120.34   
    28. A(C   0,C   5,H  10)          120.00 -0.000936    0.15    120.15   
    29. A(C   0,C   5,C   4)          120.00  0.000823   -0.13    119.87   
    30. A(C   4,C   5,H  10)          120.00  0.000113   -0.02    119.98   
    31. D(H   6,C   1,C   0,C   5)    180.00 -0.000000    0.00    180.00   
    32. D(H   6,C   1,C   0,H  11)      0.00 -0.000000    0.00      0.00   
    33. D(C   2,C   1,C   0,H  11)    180.00 -0.000000    0.00    180.00   
    34. D(C   2,C   1,C   0,C   5)      0.00 -0.000000    0.00      0.00   
    35. D(H   7,C   2,C   1,C   0)    180.00  0.000000   -0.00    180.00   
    36. D(C   3,C   2,C   1,C   0)      0.00  0.000000   -0.00     -0.00   
    37. D(C   3,C   2,C   1,H   6)    180.00  0.000000   -0.00    180.00   
    38. D(H   7,C   2,C   1,H   6)      0.00  0.000000   -0.00     -0.00   
    39. D(H   8,C   3,C   2,H   7)      0.00 -0.000000    0.00      0.00   
    40. D(H   8,C   3,C   2,C   1)    180.00 -0.000000    0.00    180.00   
    41. D(C   4,C   3,C   2,H   7)    180.00  0.000000   -0.00    180.00   
    42. D(C   4,C   3,C   2,C   1)      0.00 -0.000000    0.00      0.00   
    43. D(H   9,C   4,C   3,C   2)    180.00 -0.000000    0.00    180.00   
    44. D(C   5,C   4,C   3,H   8)    180.00 -0.000000    0.00    180.00   
    45. D(C   5,C   4,C   3,C   2)      0.00 -0.000000    0.00      0.00   
    46. D(H   9,C   4,C   3,H   8)      0.00 -0.000000   -0.00     -0.00   
    47. D(H  10,C   5,C   4,H   9)      0.00  0.000000    0.00      0.00   
    48. D(C   0,C   5,C   4,H   9)    180.00  0.000000   -0.00    180.00   
    49. D(C   0,C   5,C   4,C   3)      0.00  0.000000   -0.00     -0.00   
    50. D(H  10,C   5,C   0,H  11)      0.00 -0.000000    0.00      0.00   
    51. D(H  10,C   5,C   0,C   1)    180.00  0.000000    0.00    180.00   
    52. D(H  10,C   5,C   4,C   3)    180.00  0.000000   -0.00    180.00   
    53. D(C   4,C   5,C   0,H  11)    180.00 -0.000000    0.00    180.00   
    54. D(C   4,C   5,C   0,C   1)      0.00 -0.000000    0.00      0.00   
    ----------------------------------------------------------------------------

         *************************************************************
         *                GEOMETRY OPTIMIZATION CYCLE   2            *
         *************************************************************
---------------------------------
CARTESIAN COORDINATES (ANGSTROEM)
---------------------------------
  C      0.006031    0.000000    0.012391
  C      0.014882   -0.000000    1.405213
  C      1.217063    0.000000    2.097911
  C      2.413138    0.000000    1.397315
  C      2.403995   -0.000000    0.009627
  C      1.202313    0.000000   -0.683007
  H     -0.913844   -0.000000    1.944808
  H      1.222679    0.000000    3.172738
  H      3.347119    0.000000    1.928366
  H      3.331350   -0.000000   -0.532198
  H      1.201907    0.000000   -1.757637
  H     -0.981022   -0.000000   -0.414028

----------------------------
CARTESIAN COORDINATES (A.U.)
----------------------------
  NO LB      ZA    FRAG     MASS         X           Y           Z
   0 C     6.0000    0    12.011    0.011397    0.000000    0.023416
   1 C     6.0000    0    12.011    0.028122   -0.000000    2.655467
   2 C     6.0000    0    12.011    2.299916    0.000000    3.964477
   3 C     6.0000    0    12.011    4.560170    0.000000    2.640543
   4 C     6.0000    0    12.011    4.542892   -0.000000    0.018193
   5 C     6.0000    0    12.011    2.272043    0.000000   -1.290695
   6 H     1.0000    0     1.008   -1.726915   -0.000000    3.675155
   7 H     1.0000    0     1.008    2.310529    0.000000    5.995607
   8 H     1.0000    0     1.008    6.325138    0.000000    3.644084
   9 H     1.0000    0     1.008    6.295339   -0.000000   -1.005708
  10 H     1.0000    0     1.008    2.271274    0.000000   -3.321454
  11 H     1.0000    0     1.008   -1.853863   -0.000000   -0.782400

--------------------------------
INTERNAL COORDINATES (ANGSTROEM)
--------------------------------
 C      0   0   0     0.000000000000     0.00000000     0.00000000
 C      1   0   0     1.392849663253     0.00000000     0.00000000
 C      2   1   0     1.387469467334   120.31466415     0.00000000
 C      3   2   1     1.386156576960   119.68994511     0.00000000
 C      4   3   2     1.387718084194   119.98195595     0.00000000
 C      1   2   3     1.383715467285   119.80533281     0.00000000
 H      2   1   3     1.074101688222   119.79278221   180.00000085
 H      3   2   1     1.074841922579   120.24995802   180.00000000
 H      4   3   2     1.074399737751   120.01845947   180.00000000
 H      5   4   3     1.074039629698   119.91893687   180.00000000
 H      6   1   2     1.074631026773   120.14773087   180.00000000
 H      1   2   3     1.075224480834   113.72901201   180.00000000

---------------------------
INTERNAL COORDINATES (A.U.)
---------------------------
 C      0   0   0     0.000000000000     0.00000000     0.00000000
 C      1   0   0     2.632104409272     0.00000000     0.00000000
 C      2   1   0     2.621937312440   120.31466415     0.00000000
 C      3   2   1     2.619456309188   119.68994511     0.00000000
 C      4   3   2     2.622407130217   119.98195595     0.00000000
 C      1   2   3     2.614843280439   119.80533281     0.00000000
 H      2   1   3     2.029758030722   119.79278221   180.00000085
 H      3   2   1     2.031156870932   120.24995802   180.00000000
 H      4   3   2     2.030321262706   120.01845947   180.00000000
 H      5   4   3     2.029640757107   119.91893687   180.00000000
 H      6   1   2     2.030758335616   120.14773087   180.00000000
 H      1   2   3     2.031879801264   113.72901201   180.00000000

------------------------------------------------------------------------------
                   ___                                                        
                  /   \      - P O W E R E D   B Y -                         
                 /     \                                                     
                 |  |  |   _    _      __       _____    __    __             
                 |  |  |  | |  | |    /  \     |  _  \  |  |  /  |          
                  \  \/   | |  | |   /    \    | | | |  |  | /  /          
                 / \  \   | |__| |  /  /\  \   | |_| |  |  |/  /          
                |  |  |   |  __  | /  /__\  \  |    /   |      \           
                |  |  |   | |  | | |   __   |  |    \   |  |\   \          
                \     /   | |  | | |  |  |  |  | |\  \  |  | \   \       
                 \___/    |_|  |_| |__|  |__|  |_| \__\ |__|  \__/        
                                                                              
                      - O R C A' S   B I G   F R I E N D -                    
                                      &                                       
                       - I N T E G R A L  F E E D E R -                       
                                                                              
 v1 FN, 2020, v2 2021                                                         
------------------------------------------------------------------------------


Reading SHARK input file benzene_hf.SHARKINP.tmp ... ok
----------------------
SHARK INTEGRAL PACKAGE
----------------------

Number of atoms                             ...     12
Number of basis functions                   ...     96
Number of shells                            ...     48
Maximum angular momentum                    ...      2
Integral batch strategy                     ... SHARK/LIBINT Hybrid
RI-J (if used) integral strategy            ... SPLIT-RIJ (Revised 2003 algorithm where possible)
Printlevel                                  ...      1
Contraction scheme used                     ... SEGMENTED contraction
Coulomb Range Separation                    ... NOT USED
Exchange Range Separation                   ... NOT USED
Finite Nucleus Model                        ... NOT USED
Auxiliary Coulomb fitting basis             ... NOT available
Auxiliary J/K fitting basis                 ... NOT available
Auxiliary Correlation fitting basis         ... NOT available
Auxiliary 'external' fitting basis          ... NOT available
Integral threshold                          ...     2.500000e-11
Primitive cut-off                           ...     2.500000e-12
Primitive pair pre-selection threshold      ...     2.500000e-12

Calculating pre-screening integrals         ... done (  0.1 sec) Dimension = 48
Organizing shell pair data                  ... done (  0.0 sec)
Shell pair information
Total number of shell pairs                 ...      1176
Shell pairs after pre-screening             ...      1158
Total number of primitive shell pairs       ...      6699
Primitive shell pairs kept                  ...      4829
          la=0 lb=0:    447 shell pairs
          la=1 lb=0:    360 shell pairs
          la=1 lb=1:     78 shell pairs
          la=2 lb=0:    180 shell pairs
          la=2 lb=1:     72 shell pairs
          la=2 lb=2:     21 shell pairs

Calculating one electron integrals          ... done (  0.0 sec)
Calculating Nuclear repulsion               ... done (  0.0 sec) ENN=    204.691028941240 Eh

SHARK setup successfully completed in   0.2 seconds

Maximum memory used throughout the entire GTOINT-calculation: 10.6 MB

Diagonalization of the overlap matrix:
Smallest eigenvalue                        ... 5.028e-04
Time for diagonalization                   ...    0.003 sec
Threshold for overlap eigenvalues          ... 1.000e-08
Number of eigenvalues below threshold      ... 0
Time for construction of square roots      ...    0.000 sec
Total time needed                          ...    0.003 sec

--------------
SCF ITERATIONS
--------------
ITER       Energy         Delta-E        Max-DP      RMS-DP      [F,P]     Damp
               ***  Starting incremental Fock matrix formation  ***
  0   -230.7000611365   0.000000000000 0.00208796  0.00012438  0.0109927 0.7000
                      *** Initiating the SOSCF procedure ***
                      *** Re-Reading the Fockian *** 
                      *** Removing any level shift *** 
ITER      Energy       Delta-E        Grad      Rot      Max-DP    RMS-DP
  1   -230.70024872  -0.0001875817  0.000845  0.000845  0.006130  0.000331
               *** Restarting incremental Fock matrix formation ***
  2   -230.70071815  -0.0004694342  0.000933  0.000788  0.001463  0.000097
  3   -230.70074542  -0.0000272637  0.000358  0.000486  0.000751  0.000044
  4   -230.70074960  -0.0000041876  0.000113  0.000273  0.000162  0.000011
  5   -230.70074989  -0.0000002826  0.000060  0.000218  0.000104  0.000008
  6   -230.70074998  -0.0000000893  0.000018  0.000063  0.000034  0.000003
  7   -230.70074999  -0.0000000131  0.000008  0.000037  0.000031  0.000002
                 **** Energy Check signals convergence ****
              ***Rediagonalizing the Fockian in SOSCF/NRSCF***

               *****************************************************
               *                     SUCCESS                       *
               *           SCF CONVERGED AFTER   8 CYCLES          *
               *****************************************************

Total Energy       :         -230.70074999 Eh           -6277.68656 eV
  Last Energy change         ...   -2.1026e-09  Tolerance :   1.0000e-08
  Last MAX-Density change    ...    4.9093e-06  Tolerance :   1.0000e-07
             **** THE GBW FILE WAS UPDATED (benzene_hf.gbw) ****
             **** DENSITY benzene_hf.scfp WAS UPDATED ****
             **** ENERGY FILE WAS UPDATED (benzene_hf.en.tmp) ****
             **** THE GBW FILE WAS UPDATED (benzene_hf.gbw) ****
             **** DENSITY benzene_hf.scfp WAS UPDATED ****
Total SCF time: 0 days 0 hours 0 min 10 sec 

Maximum memory used throughout the entire SCF-calculation: 233.7 MB

-------------------------   --------------------
FINAL SINGLE POINT ENERGY      -230.700749990841
-------------------------   --------------------

------------------------------------------------------------------------------
                         ORCA SCF GRADIENT CALCULATION
------------------------------------------------------------------------------

Gradient of the Hartree-Fock SCF energy:
Hartree-Fock type                ... RHF
Number of operators              ...    1
Number of atoms                  ...   12
Basis set dimensions             ...   96
Integral neglect threshold       ... 2.5e-11
Integral primitive cutoff        ... 2.5e-12
SHARK Integral package           ... ON

Nuc. rep. gradient       (SHARK) ... done (  0.0 sec)
HCore & Overlap gradient (SHARK) ... done (  0.1 sec)
Two-Electron gradient    (SHARK) ... done (  5.1 sec)

------------------
CARTESIAN GRADIENT
------------------

   1   C   :    0.007872639   -0.000000000   -0.021601979
   2   C   :   -0.008118556   -0.000000000    0.001498828
   3   C   :    0.001799744    0.000000000    0.001584264
   4   C   :    0.000561509    0.000000000    0.002256433
   5   C   :    0.000884318   -0.000000000   -0.002196683
   6   C   :    0.003728757    0.000000000    0.004065252
   7   H   :    0.000995084   -0.000000000   -0.000223035
   8   H   :    0.000061222   -0.000000000   -0.000526515
   9   H   :   -0.000810255   -0.000000000   -0.000198310
  10   H   :   -0.000849972   -0.000000000    0.000548492
  11   H   :   -0.000321703    0.000000000    0.000739841
  12   H   :   -0.005802786   -0.000000000    0.014053414

Difference to translation invariance:
           :   -0.0000000000    0.0000000000    0.0000000000

Difference to rotation invariance:
           :    0.0000000000    0.0000008900   -0.0000000000

Norm of the cartesian gradient     ...    0.0296451704
RMS gradient                       ...    0.0049408617
MAX gradient                       ...    0.0216019792

-------
TIMINGS
-------

Total SCF gradient time            ...        5.299 sec

One electron gradient       ....       0.101 sec  (  1.9%)
Two electron gradient       ....       5.139 sec  ( 97.0%)

Maximum memory used throughout the entire SCFGRAD-calculation: 22.3 MB
------------------------------------------------------------------------------
                         ORCA GEOMETRY RELAXATION STEP
------------------------------------------------------------------------------

Reading the OPT-File                    .... done
Getting information on internals        .... done
Copying old internal coords+grads       .... done
Making the new internal coordinates     .... (new redundants).... done
Validating the new internal coordinates .... (new redundants).... done
Calculating the B-matrix                .... done
Calculating the G,G- and P matrices     .... done
Transforming gradient to internals      .... done
Projecting the internal gradient        .... done
Number of atoms                         ....  12
Number of internal coordinates          ....  54
Current Energy                          ....  -230.700749991 Eh
Current gradient norm                   ....     0.029645170 Eh/bohr
Maximum allowed component of the step   ....  0.300
Current trust radius                    ....  0.300
Updating the Hessian (BFGS)             .... done
Forming the augmented Hessian           .... done
Diagonalizing the augmented Hessian     .... done
Last element of RFO vector              ....  0.994362547
Lowest eigenvalues of augmented Hessian:
 -0.002345054  0.025015034  0.025015050  0.025015054  0.025015096
Length of the computed step             ....  0.106634757
The final length of the internal step   ....  0.106634757
Converting the step to cartesian space:
 Initial RMS(Int)=    0.0145111524
Transforming coordinates:
 Iter   0:  RMS(Cart)=    0.0223008519 RMS(Int)=    2.8358614806
 Iter   1:  RMS(Cart)=    0.0007953457 RMS(Int)=    0.0006734280
 Iter   2:  RMS(Cart)=    0.0000513305 RMS(Int)=    0.0000329893
 Iter   3:  RMS(Cart)=    0.0000036622 RMS(Int)=    0.0000030995
 Iter   4:  RMS(Cart)=    0.0000002369 RMS(Int)=    0.0000001528
 Iter   5:  RMS(Cart)=    0.0000000168 RMS(Int)=    0.0000000142
done
Storing new coordinates                 .... done

                                .--------------------.
          ----------------------|Geometry convergence|-------------------------
          Item                value                   Tolerance       Converged
          ---------------------------------------------------------------------
          Energy change      -0.0049848538            0.0000050000      NO
          RMS gradient        0.0030269318            0.0001000000      NO
          MAX gradient        0.0156305789            0.0003000000      NO
          RMS step            0.0145111524            0.0020000000      NO
          MAX step            0.0745450373            0.0040000000      NO
          ........................................................
          Max(Bonds)      0.0046      Max(Angles)    4.27
          Max(Dihed)        0.00      Max(Improp)    0.00
          ---------------------------------------------------------------------

The optimization has not yet converged - more geometry cycles are needed


    ---------------------------------------------------------------------------
                         Redundant Internal Coordinates
                            (Angstroem and degrees)

        Definition                    Value    dE/dq     Step     New-Value
    ----------------------------------------------------------------------------
     1. B(C   1,C   0)                1.3928  0.002341 -0.0042    1.3886   
     2. B(C   2,C   1)                1.3875  0.001760 -0.0044    1.3830   
     3. B(C   3,C   2)                1.3862 -0.000423 -0.0019    1.3842   
     4. B(C   4,C   3)                1.3877  0.002015 -0.0046    1.3831   
     5. B(C   5,C   4)                1.3870  0.000399 -0.0028    1.3842   
     6. B(C   5,C   0)                1.3837  0.000563 -0.0036    1.3801   
     7. B(H   6,C   1)                1.0741 -0.000972 -0.0006    1.0735   
     8. B(H   7,C   2)                1.0748 -0.000526 -0.0014    1.0735   
     9. B(H   8,C   3)                1.0744 -0.000802 -0.0009    1.0735   
    10. B(H   9,C   4)                1.0740 -0.001011 -0.0005    1.0735   
    11. B(H  10,C   5)                1.0746 -0.000740 -0.0010    1.0737   
    12. B(H  11,C   0)                1.0752 -0.000246 -0.0019    1.0733   
    13. A(C   1,C   0,H  11)          113.73 -0.015259    4.24    117.97   
    14. A(C   5,C   0,H  11)          126.47  0.015631   -4.27    122.19   
    15. A(C   1,C   0,C   5)          119.81 -0.000372    0.03    119.84   
    16. A(C   0,C   1,C   2)          120.31  0.000056    0.03    120.35   
    17. A(C   2,C   1,H   6)          119.89 -0.000340    0.06    119.96   
    18. A(C   0,C   1,H   6)          119.79  0.000283   -0.10    119.70   
    19. A(C   3,C   2,H   7)          120.06  0.000007    0.01    120.07   
    20. A(C   1,C   2,H   7)          120.25  0.000136    0.02    120.27   
    21. A(C   1,C   2,C   3)          119.69 -0.000143   -0.03    119.66   
    22. A(C   2,C   3,C   4)          119.98  0.000089   -0.01    119.97   
    23. A(C   4,C   3,H   8)          120.00  0.000187   -0.05    119.95   
    24. A(C   2,C   3,H   8)          120.02 -0.000276    0.06    120.08   
    25. A(C   5,C   4,H   9)          119.74 -0.000084   -0.03    119.71   
    26. A(C   3,C   4,H   9)          119.92 -0.000175    0.02    119.94   
    27. A(C   3,C   4,C   5)          120.34  0.000259    0.02    120.35   
    28. A(C   0,C   5,H  10)          120.15 -0.000382    0.11    120.26   
    29. A(C   0,C   5,C   4)          119.87  0.000111   -0.04    119.83   
    30. A(C   4,C   5,H  10)          119.98  0.000272   -0.07    119.91   
    31. D(H   6,C   1,C   0,C   5)   -180.00  0.000000   -0.00   -180.00   
    32. D(H   6,C   1,C   0,H  11)      0.00  0.000000   -0.00      0.00   
    33. D(C   2,C   1,C   0,H  11)   -180.00  0.000000   -0.00   -180.00   
    34. D(C   2,C   1,C   0,C   5)      0.00  0.000000   -0.00     -0.00   
    35. D(H   7,C   2,C   1,C   0)    180.00 -0.000000    0.00    180.00   
    36. D(C   3,C   2,C   1,C   0)     -0.00 -0.000000    0.00      0.00   
    37. D(C   3,C   2,C   1,H   6)    180.00 -0.000000    0.00    180.00   
    38. D(H   7,C   2,C   1,H   6)     -0.00 -0.000000    0.00     -0.00   
    39. D(H   8,C   3,C   2,H   7)      0.00 -0.000000    0.00      0.00   
    40. D(H   8,C   3,C   2,C   1)   -180.00  0.000000   -0.00   -180.00   
    41. D(C   4,C   3,C   2,H   7)    180.00 -0.000000    0.00    180.00   
    42. D(C   4,C   3,C   2,C   1)      0.00  0.000000   -0.00     -0.00   
    43. D(H   9,C   4,C   3,C   2)   -180.00  0.000000   -0.00   -180.00   
    44. D(C   5,C   4,C   3,H   8)   -180.00  0.000000   -0.00   -180.00   
    45. D(C   5,C   4,C   3,C   2)      0.00  0.000000   -0.00     -0.00   
    46. D(H   9,C   4,C   3,H   8)     -0.00 -0.000000    0.00      0.00   
    47. D(H  10,C   5,C   4,H   9)      0.00  0.000000   -0.00     -0.00   
    48. D(C   0,C   5,C   4,H   9)    180.00 -0.000000    0.00    180.00   
    49. D(C   0,C   5,C   4,C   3)     -0.00 -0.000000    0.00      0.00   
    50. D(H  10,C   5,C   0,H  11)      0.00  0.000000   -0.00      0.00   
    51. D(H  10,C   5,C   0,C   1)   -180.00  0.000000    0.00   -180.00   
    52. D(H  10,C   5,C   4,C   3)    180.00 -0.000000    0.00    180.00   
    53. D(C   4,C   5,C   0,H  11)   -180.00  0.000000   -0.00   -180.00   
    54. D(C   4,C   5,C   0,C   1)      0.00  0.000000   -0.00     -0.00   
    ----------------------------------------------------------------------------

         *************************************************************
         *                GEOMETRY OPTIMIZATION CYCLE   3            *
         *************************************************************
---------------------------------
CARTESIAN COORDINATES (ANGSTROEM)
---------------------------------
  C      0.003427   -0.000000    0.025906
  C      0.018090    0.000000    1.414474
  C      1.218932   -0.000000    2.100604
  C      2.410449   -0.000000    1.396062
  C      2.395329    0.000000    0.013063
  C      1.193280   -0.000000   -0.673350
  H     -0.908760    0.000000    1.956112
  H      1.228734   -0.000000    3.174021
  H      3.346395   -0.000000    1.921825
  H      3.319713    0.000000   -0.532783
  H      1.189832   -0.000000   -1.746997
  H     -0.949810    0.000000   -0.467437

----------------------------
CARTESIAN COORDINATES (A.U.)
----------------------------
  NO LB      ZA    FRAG     MASS         X           Y           Z
   0 C     6.0000    0    12.011    0.006477   -0.000000    0.048956
   1 C     6.0000    0    12.011    0.034185    0.000000    2.672969
   2 C     6.0000    0    12.011    2.303447   -0.000000    3.969566
   3 C     6.0000    0    12.011    4.555088   -0.000000    2.638174
   4 C     6.0000    0    12.011    4.526516    0.000000    0.024685
   5 C     6.0000    0    12.011    2.254972   -0.000000   -1.272447
   6 H     1.0000    0     1.008   -1.717307    0.000000    3.696516
   7 H     1.0000    0     1.008    2.321970   -0.000000    5.998029
   8 H     1.0000    0     1.008    6.323770   -0.000000    3.631723
   9 H     1.0000    0     1.008    6.273348    0.000000   -1.006814
  10 H     1.0000    0     1.008    2.248456   -0.000000   -3.301345
  11 H     1.0000    0     1.008   -1.794881    0.000000   -0.883327

--------------------------------
INTERNAL COORDINATES (ANGSTROEM)
--------------------------------
 C      0   0   0     0.000000000000     0.00000000     0.00000000
 C      1   0   0     1.388645162055     0.00000000     0.00000000
 C      2   1   0     1.383038421487   120.34752810     0.00000000
 C      3   2   1     1.384229927588   119.66169972     0.00000000
 C      4   3   2     1.383081689815   119.96940795     0.00000000
 C      1   2   3     1.380111854101   119.83703382     0.00000000
 H      2   1   3     1.073509031436   119.69641067   180.00000000
 H      3   2   1     1.073461147458   120.26570620   180.00000000
 H      4   3   2     1.073509482983   120.07934850   180.00000000
 H      5   4   3     1.073514542909   119.93536077   179.99999915
 H      6   1   2     1.073652299135   120.25802233   180.00000000
 H      1   2   3     1.073335485676   117.96859015   180.00000000

---------------------------
INTERNAL COORDINATES (A.U.)
---------------------------
 C      0   0   0     0.000000000000     0.00000000     0.00000000
 C      1   0   0     2.624159053478     0.00000000     0.00000000
 C      2   1   0     2.613563849301   120.34752810     0.00000000
 C      3   2   1     2.615815469519   119.66169972     0.00000000
 C      4   3   2     2.613645614592   119.96940795     0.00000000
 C      1   2   3     2.608033438429   119.83703382     0.00000000
 H      2   1   3     2.028638071705   119.69641067   180.00000000
 H      3   2   1     2.028547584100   120.26570620   180.00000000
 H      4   3   2     2.028638925006   120.07934850   180.00000000
 H      5   4   3     2.028648486880   119.93536077   179.99999915
 H      6   1   2     2.028908808419   120.25802233   180.00000000
 H      1   2   3     2.028310117746   117.96859015   180.00000000

------------------------------------------------------------------------------
                   ___                                                        
                  /   \      - P O W E R E D   B Y -                         
                 /     \                                                     
                 |  |  |   _    _      __       _____    __    __             
                 |  |  |  | |  | |    /  \     |  _  \  |  |  /  |          
                  \  \/   | |  | |   /    \    | | | |  |  | /  /          
                 / \  \   | |__| |  /  /\  \   | |_| |  |  |/  /          
                |  |  |   |  __  | /  /__\  \  |    /   |      \           
                |  |  |   | |  | | |   __   |  |    \   |  |\   \          
                \     /   | |  | | |  |  |  |  | |\  \  |  | \   \       
                 \___/    |_|  |_| |__|  |__|  |_| \__\ |__|  \__/        
                                                                              
                      - O R C A' S   B I G   F R I E N D -                    
                                      &                                       
                       - I N T E G R A L  F E E D E R -                       
                                                                              
 v1 FN, 2020, v2 2021                                                         
------------------------------------------------------------------------------


Reading SHARK input file benzene_hf.SHARKINP.tmp ... ok
----------------------
SHARK INTEGRAL PACKAGE
----------------------

Number of atoms                             ...     12
Number of basis functions                   ...     96
Number of shells                            ...     48
Maximum angular momentum                    ...      2
Integral batch strategy                     ... SHARK/LIBINT Hybrid
RI-J (if used) integral strategy            ... SPLIT-RIJ (Revised 2003 algorithm where possible)
Printlevel                                  ...      1
[...]
     17      -0.000000   0.000000  -0.275505   0.288308   0.000000  -0.000000
     18      -0.000000   0.000000  -0.257121   0.249564   0.000000  -0.000000
     19       0.308565  -0.480245  -0.000000   0.000000  -0.093217   0.560085
     20      -0.000000  -0.000000   0.156560  -0.146208  -0.000000   0.000000
     21      -0.000000   0.000000  -0.001720   0.001772  -0.000000   0.000000
     22       0.570742   0.025735   0.000000   0.000000   0.530899  -0.200517
     23      -0.000000   0.000000   0.301294   0.288520  -0.000000   0.000000
     24       0.000000   0.000000   0.264078  -0.252427  -0.000000   0.000000
     25       0.261758   0.507521   0.000000   0.000000  -0.438378  -0.361075
     26      -0.000000  -0.000000   0.145425  -0.140220   0.000000   0.000000
     27      -0.000000   0.000000   0.262082   0.249048  -0.000000   0.000000
     28      -0.307453   0.480954  -0.000000  -0.000000  -0.091799   0.560685
     29      -0.000000  -0.000000  -0.149661  -0.146895   0.000000  -0.000000
     30      -0.000000   0.000000  -0.007385   0.000936   0.000000  -0.000000
     31      -0.570449  -0.027064   0.000000  -0.000000   0.531898  -0.199431
     32      -0.000000   0.000000  -0.301697   0.288615   0.000000  -0.000000
     33       0.000000   0.000000  -0.261418  -0.251673   0.000000  -0.000000
     34      -0.262411  -0.507293   0.000000  -0.000000  -0.439717  -0.359177
     35      -0.000000  -0.000000  -0.150098  -0.141368  -0.000000  -0.000000
                 18         19         20         21         22         23    
      0      -0.000000  -0.087537   0.071721   0.068366  -0.024092  -0.021791
      1      -0.065961   0.000000   0.000000   0.000000   0.000000   0.000000
      2       0.000000   0.037195   0.088247  -0.118535   0.043998   0.036593
      3       0.000000   0.090610   0.066366   0.071117   0.005201  -0.033201
      4       0.066057  -0.000000  -0.000000   0.000000  -0.000000   0.000000
      5      -0.000000   0.031401  -0.090760   0.117368   0.010885  -0.055497
      6      -0.000000  -0.001965  -0.086273  -0.136698  -0.061981   0.021969
      7      -0.065963   0.000000   0.000000  -0.000000   0.000000   0.000000
      8      -0.000000  -0.120850   0.002867  -0.000704   0.000064  -0.001246
      9      -0.000000  -0.088225   0.071699   0.065334   0.023706   0.021634
     10       0.065950  -0.000000  -0.000000  -0.000000   0.000000   0.000000
     11       0.000000   0.037228   0.087472  -0.120280  -0.044036  -0.036883
     12       0.000000   0.090799   0.066445   0.068306  -0.005019   0.032957
     13      -0.065961   0.000000   0.000000  -0.000000  -0.000000   0.000000
     14      -0.000000   0.031888  -0.089917   0.119194  -0.010916   0.055694
     15      -0.000000  -0.002905  -0.086276  -0.136785   0.062074  -0.021910
     16       0.065887  -0.000000  -0.000000   0.000000   0.000000   0.000000
     17      -0.000000  -0.120547   0.002879   0.002638  -0.000353   0.001490
     18       0.000000   0.293349  -0.045775   0.198020   0.053260  -0.287015
     19      -0.403661   0.000000   0.000000  -0.000000   0.000000  -0.000000
     20       0.000000   0.364654  -0.297861   0.331995   0.091933  -0.485618
     21      -0.000000  -0.008588  -0.543241  -0.382414  -0.540509   0.193557
     22       0.402975  -0.000000  -0.000000   0.000000  -0.000000   0.000000
     23      -0.000000  -0.130920   0.007763   0.001595   0.005057  -0.002839
     24      -0.000000  -0.289129  -0.028457   0.186474   0.213050   0.183770
     25      -0.402787   0.000000   0.000000   0.000000  -0.000000  -0.000000
     26       0.000000   0.383700   0.283197  -0.335744  -0.379797  -0.324908
     27       0.000000   0.294449  -0.045181   0.195425  -0.051281   0.286919
     28       0.402784  -0.000000  -0.000000   0.000000   0.000000  -0.000000
     29       0.000000   0.365968  -0.295634   0.334535  -0.088762   0.485151
     30      -0.000000  -0.011434  -0.543302  -0.383062   0.540896  -0.189747
     31      -0.402256   0.000000   0.000000  -0.000000  -0.000000   0.000000
     32      -0.000000  -0.130576   0.007342   0.005124  -0.004903   0.002894
     33      -0.000000  -0.287903  -0.029488   0.189840  -0.214094  -0.183398
     34       0.402841  -0.000000  -0.000000  -0.000000  -0.000000  -0.000000
     35       0.000000   0.382642   0.285819  -0.333693   0.380738   0.323525
                 24         25         26         27         28         29    
      0      -0.046425   0.029537  -0.046848   0.094255   0.200162  -0.016188
      1      -0.000000   0.000000  -0.000000   0.000000   0.000000  -0.000000
      2       0.081324  -0.052444   0.134043   0.009053  -0.150972   0.240305
      3      -0.048012  -0.030585   0.092745  -0.052097  -0.159633  -0.127854
      4      -0.000000  -0.000000   0.000000  -0.000000  -0.000000  -0.000000
      5      -0.080331  -0.051743  -0.014519  -0.132673   0.006141  -0.281415
      6       0.093721  -0.060210  -0.103743  -0.101019   0.302676   0.091867
      7       0.000000  -0.000000  -0.000000   0.000000   0.000000   0.000000
      8      -0.000571   0.000593  -0.061480   0.065887  -0.042728   0.137887
      9      -0.045580  -0.029546  -0.047535   0.095359  -0.198059   0.016079
     10       0.000000   0.000000   0.000000  -0.000000   0.000000  -0.000000
     11       0.081793   0.052453   0.133109   0.007737   0.149965  -0.242611
     12      -0.047257   0.030585   0.093892  -0.052741   0.157745   0.126355
     13       0.000000  -0.000000  -0.000000   0.000000  -0.000000  -0.000000
     14      -0.080730   0.051754  -0.013050  -0.131910  -0.008253   0.282646
     15       0.093657   0.060226  -0.105143  -0.099701  -0.303172  -0.089145
     16      -0.000000  -0.000000   0.000000  -0.000000   0.000000   0.000000
     17      -0.001412  -0.000607  -0.062148   0.065223   0.044663  -0.137257
     18       0.200832   0.205346   0.028179   0.290597  -0.089635   0.244557
     19       0.000000   0.000000   0.000000   0.000000  -0.000000   0.000000
     20       0.341558   0.348065  -0.168657   0.436643   0.174196   0.338572
     21      -0.396888   0.403738   0.384189   0.378709  -0.410741  -0.121866
     22      -0.000000   0.000000   0.000000   0.000000  -0.000000   0.000000
     23       0.004589  -0.004229  -0.082887   0.077731  -0.042198   0.164946
     24       0.195538   0.198275   0.281145   0.022470   0.049757  -0.254169
     25      -0.000000  -0.000000  -0.000000   0.000000  -0.000000   0.000000
     26      -0.345937  -0.351755  -0.437205   0.183093  -0.325473   0.198496
     27       0.203043  -0.205624   0.026162   0.289893   0.092082  -0.248110
     28      -0.000000   0.000000  -0.000000  -0.000000  -0.000000   0.000000
     29       0.342247  -0.347529  -0.172230   0.436013  -0.168190  -0.337654
     30      -0.398402  -0.403513   0.387269   0.375705   0.412307   0.115709
     31       0.000000   0.000000  -0.000000  -0.000000  -0.000000   0.000000
     32       0.003060   0.003705  -0.083115   0.077591   0.045716  -0.163745
     33       0.194633  -0.198300   0.282815   0.024181  -0.050423   0.250630
     34       0.000000  -0.000000   0.000000  -0.000000  -0.000000   0.000000
     35      -0.346379   0.351671  -0.437588   0.179289   0.330052  -0.195328
                 30         31         32         33         34         35    
      0       0.029705  -0.027311   0.033488  -0.026804   0.036332  -0.032638
      1       0.000000  -0.000000   0.000000   0.000000   0.000000  -0.000000
      2       0.016727  -0.012800   0.020895  -0.018595   0.017676  -0.018358
      3      -0.029792   0.042795   0.004385  -0.043529  -0.008607  -0.031864
      4      -0.000000   0.000000   0.000000  -0.000000  -0.000000  -0.000000
      5       0.017571  -0.024797  -0.005875   0.026336   0.000586   0.018794
      6      -0.000337  -0.002462   0.001564   0.003838  -0.000906   0.000387
      7      -0.000000   0.000000   0.000000   0.000000   0.000000   0.000000
      8      -0.034049   0.018601   0.045842   0.019206   0.048239   0.037444
      9       0.029746   0.027644  -0.033384  -0.026592   0.036336   0.032574
     10      -0.000000  -0.000000   0.000000  -0.000000  -0.000000  -0.000000
     11       0.016741   0.012997  -0.020829  -0.018512   0.017710   0.018366
     12      -0.029541  -0.042692  -0.004426  -0.043575  -0.008370   0.032061
     13       0.000000   0.000000   0.000000   0.000000   0.000000  -0.000000
     14       0.017466   0.024809   0.005906   0.026476   0.000483  -0.018973
     15      -0.000298   0.002463  -0.001498   0.003797  -0.001001  -0.000333
     16       0.000000   0.000000   0.000000  -0.000000  -0.000000   0.000000
     17      -0.033871  -0.018734  -0.046000   0.018894   0.048139  -0.037636
     18       0.354380  -0.493002  -0.065551   0.486908   0.076616   0.346475
     19       0.000000  -0.000000  -0.000000   0.000000   0.000000   0.000000
     20      -0.209102   0.290346   0.042914  -0.288299  -0.038663  -0.204457
     21       0.004187   0.001194  -0.006901  -0.007527  -0.003484  -0.004203
     22       0.000000  -0.000000  -0.000000  -0.000000  -0.000000  -0.000000
     23       0.405461  -0.215155  -0.530601  -0.214106  -0.536668  -0.407516
     24      -0.353996  -0.308680   0.395067   0.310507  -0.392823  -0.354487
     25       0.000000   0.000000  -0.000000  -0.000000   0.000000   0.000000
     26      -0.199480  -0.170635   0.225235   0.180122  -0.217304  -0.199773
     27       0.351449   0.491991   0.065916   0.487758   0.074259  -0.348804
     28      -0.000000  -0.000000  -0.000000  -0.000000  -0.000000   0.000000
     29      -0.207889  -0.290462  -0.043226  -0.289523  -0.037380   0.206315
     30       0.003724  -0.001383   0.006336  -0.007278  -0.002878   0.003801
     31      -0.000000  -0.000000  -0.000000   0.000000   0.000000  -0.000000
     32       0.403338   0.216568   0.532487  -0.210787  -0.535546   0.409649
     33      -0.353574   0.304671  -0.396389   0.312801  -0.392557   0.354997
     34      -0.000000   0.000000  -0.000000   0.000000  -0.000000   0.000000
     35      -0.199293   0.168427  -0.226076   0.181466  -0.217237   0.200102


-----------
IR SPECTRUM
-----------

 Mode   freq       eps      Int      T**2         TX        TY        TZ
       cm**-1   L/(mol*cm) km/mol    a.u.
----------------------------------------------------------------------------
  6:    453.39   0.000000    0.00  0.000000  (-0.000000 -0.000027  0.000000)
  7:    453.53   0.000000    0.00  0.000000  (-0.000000  0.000007 -0.000000)
  8:    665.24   0.000000    0.00  0.000000  ( 0.000005 -0.000000  0.000023)
  9:    665.29   0.000000    0.00  0.000000  (-0.000022  0.000000  0.000010)
 10:    764.67   0.021037  106.31  0.008585  (-0.000000  0.092657 -0.000000)
 11:    776.71   0.000000    0.00  0.000000  (-0.000000  0.000016  0.000000)
 12:    961.37   0.000000    0.00  0.000000  (-0.000000  0.000025  0.000000)
 13:    961.40   0.000000    0.00  0.000000  ( 0.000000 -0.000012 -0.000000)
 14:   1083.66   0.000000    0.00  0.000000  (-0.000009 -0.000000  0.000011)
 15:   1096.09   0.000000    0.00  0.000000  (-0.000019 -0.000000  0.000012)
 16:   1100.00   0.000000    0.00  0.000000  ( 0.000000 -0.000008 -0.000000)
 17:   1100.15   0.000000    0.00  0.000000  (-0.000000  0.000015  0.000000)
 18:   1136.21   0.000000    0.00  0.000000  (-0.000000 -0.000002  0.000000)
 19:   1142.06   0.000577    2.92  0.000158  (-0.000098 -0.000000  0.012557)
 20:   1142.13   0.000574    2.90  0.000157  (-0.012519  0.000000 -0.000108)
 21:   1198.99   0.000000    0.00  0.000000  ( 0.000041  0.000000  0.000014)
 22:   1294.20   0.000000    0.00  0.000000  ( 0.000005 -0.000000  0.000074)
 23:   1294.55   0.000000    0.00  0.000000  ( 0.000064 -0.000000 -0.000047)
 24:   1353.75   0.000000    0.00  0.000000  (-0.000009 -0.000000 -0.000018)
 25:   1508.87   0.000000    0.00  0.000000  (-0.000013 -0.000000 -0.000008)
 26:   1652.73   0.002306   11.66  0.000436  ( 0.014791  0.000000 -0.014722)
 27:   1652.80   0.002310   11.67  0.000436  ( 0.014708  0.000000  0.014825)
 28:   1797.97   0.000000    0.00  0.000000  ( 0.000022 -0.000000  0.000091)
 29:   1798.34   0.000000    0.00  0.000000  (-0.000087  0.000000  0.000031)
 30:   3346.17   0.000000    0.00  0.000000  (-0.000142  0.000000  0.000158)
 31:   3357.23   0.000000    0.00  0.000000  ( 0.000087  0.000000  0.000000)
 32:   3357.46   0.000000    0.00  0.000000  ( 0.000010  0.000000 -0.000021)
 33:   3375.95   0.012401   62.67  0.001146  (-0.031379  0.000000  0.012716)
 34:   3376.17   0.012382   62.58  0.001145  ( 0.012704 -0.000000  0.031355)
 35:   3388.10   0.000000    0.00  0.000000  ( 0.000036  0.000000 -0.000074)

* The epsilon (eps) is given for a Dirac delta lineshape.
** The dipole moment derivative (T) already includes vibrational overlap.

The first frequency considered to be a vibration is 6
The total number of vibrations considered is 30


--------------------------
THERMOCHEMISTRY AT 298.15K
--------------------------

Temperature         ... 298.15 K
Pressure            ... 1.00 atm
Total Mass          ... 78.11 AMU

Throughout the following assumptions are being made:
  (1) The electronic state is orbitally nondegenerate
  (2) There are no thermally accessible electronically excited states
  (3) Hindered rotations indicated by low frequency modes are not
      treated as such but are treated as vibrations and this may
      cause some error
  (4) All equations used are the standard statistical mechanics
      equations for an ideal gas
  (5) All vibrations are strictly harmonic

freq.     453.39  E(vib)   ...       0.16 
freq.     453.53  E(vib)   ...       0.16 
freq.     665.24  E(vib)   ...       0.08 
freq.     665.29  E(vib)   ...       0.08 
freq.     764.67  E(vib)   ...       0.06 
freq.     776.71  E(vib)   ...       0.05 
freq.     961.37  E(vib)   ...       0.03 
freq.     961.40  E(vib)   ...       0.03 
freq.    1083.66  E(vib)   ...       0.02 
freq.    1096.09  E(vib)   ...       0.02 
freq.    1100.00  E(vib)   ...       0.02 
freq.    1100.15  E(vib)   ...       0.02 
freq.    1136.21  E(vib)   ...       0.01 
freq.    1142.06  E(vib)   ...       0.01 
freq.    1142.13  E(vib)   ...       0.01 
freq.    1198.99  E(vib)   ...       0.01 
freq.    1294.20  E(vib)   ...       0.01 
freq.    1294.55  E(vib)   ...       0.01 
freq.    1353.75  E(vib)   ...       0.01 
freq.    1508.87  E(vib)   ...       0.00 
freq.    1652.73  E(vib)   ...       0.00 
freq.    1652.80  E(vib)   ...       0.00 
freq.    1797.97  E(vib)   ...       0.00 
freq.    1798.34  E(vib)   ...       0.00 
freq.    3346.17  E(vib)   ...       0.00 
freq.    3357.23  E(vib)   ...       0.00 
freq.    3357.46  E(vib)   ...       0.00 
freq.    3375.95  E(vib)   ...       0.00 
freq.    3376.17  E(vib)   ...       0.00 
freq.    3388.10  E(vib)   ...       0.00 

------------
INNER ENERGY
------------

The inner energy is: U= E(el) + E(ZPE) + E(vib) + E(rot) + E(trans)
    E(el)   - is the total energy from the electronic structure calculation
              = E(kin-el) + E(nuc-el) + E(el-el) + E(nuc-nuc)
    E(ZPE)  - the the zero temperature vibrational energy from the frequency calculation
    E(vib)  - the the finite temperature correction to E(ZPE) due to population
              of excited vibrational states
    E(rot)  - is the rotational thermal energy
    E(trans)- is the translational thermal energy

Summary of contributions to the inner energy U:
Electronic energy                ...   -230.70249184 Eh
Zero point energy                ...      0.10765519 Eh      67.55 kcal/mol
Thermal vibrational correction   ...      0.00126388 Eh       0.79 kcal/mol
Thermal rotational correction    ...      0.00141627 Eh       0.89 kcal/mol
Thermal translational correction ...      0.00141627 Eh       0.89 kcal/mol
-----------------------------------------------------------------------
Total thermal energy                   -230.59074022 Eh


Summary of corrections to the electronic energy:
(perhaps to be used in another calculation)
Total thermal correction                  0.00409643 Eh       2.57 kcal/mol
Non-thermal (ZPE) correction              0.10765519 Eh      67.55 kcal/mol
-----------------------------------------------------------------------
Total correction                          0.11175161 Eh      70.13 kcal/mol


--------
ENTHALPY
--------

The enthalpy is H = U + kB*T
                kB is Boltzmann's constant
Total free energy                 ...   -230.59074022 Eh 
Thermal Enthalpy correction       ...      0.00094421 Eh       0.59 kcal/mol
-----------------------------------------------------------------------
Total Enthalpy                    ...   -230.58979601 Eh


Note: Rotational entropy computed according to Herzberg 
Infrared and Raman Spectra, Chapter V,1, Van Nostrand Reinhold, 1945 
Point Group:  Cs, Symmetry Number:   1  
Rotational constants in cm-1:     0.192477     0.192450     0.096232 

Vibrational entropy computed according to the QRRHO of S. Grimme
Chem.Eur.J. 2012 18 9955


-------
ENTROPY
-------

The entropy contributions are T*S = T*(S(el)+S(vib)+S(rot)+S(trans))
     S(el)   - electronic entropy
     S(vib)  - vibrational entropy
     S(rot)  - rotational entropy
     S(trans)- translational entropy
The entropies will be listed as multiplied by the temperature to get
units of energy

Electronic entropy                ...      0.00000000 Eh      0.00 kcal/mol
Vibrational entropy               ...      0.00167317 Eh      1.05 kcal/mol
Rotational entropy                ...      0.01217184 Eh      7.64 kcal/mol
Translational entropy             ...      0.01852142 Eh     11.62 kcal/mol
-----------------------------------------------------------------------
Final entropy term                ...      0.03236643 Eh     20.31 kcal/mol

In case the symmetry of your molecule has not been determined correctly
or in case you have a reason to use a different symmetry number we print 
out the resulting rotational entropy values for sn=1,12 :
 --------------------------------------------------------
|  sn= 1 | S(rot)=       0.01217184 Eh      7.64 kcal/mol|
|  sn= 2 | S(rot)=       0.01151738 Eh      7.23 kcal/mol|
|  sn= 3 | S(rot)=       0.01113455 Eh      6.99 kcal/mol|
|  sn= 4 | S(rot)=       0.01086293 Eh      6.82 kcal/mol|
|  sn= 5 | S(rot)=       0.01065224 Eh      6.68 kcal/mol|
|  sn= 6 | S(rot)=       0.01048010 Eh      6.58 kcal/mol|
|  sn= 7 | S(rot)=       0.01033455 Eh      6.49 kcal/mol|
|  sn= 8 | S(rot)=       0.01020847 Eh      6.41 kcal/mol|
|  sn= 9 | S(rot)=       0.01009726 Eh      6.34 kcal/mol|
|  sn=10 | S(rot)=       0.00999778 Eh      6.27 kcal/mol|
|  sn=11 | S(rot)=       0.00990779 Eh      6.22 kcal/mol|
|  sn=12 | S(rot)=       0.00982564 Eh      6.17 kcal/mol|
 --------------------------------------------------------


-------------------
GIBBS FREE ENERGY
-------------------

The Gibbs free energy is G = H - T*S

Total enthalpy                    ...   -230.58979601 Eh 
Total entropy correction          ...     -0.03236643 Eh    -20.31 kcal/mol
-----------------------------------------------------------------------
Final Gibbs free energy         ...   -230.62216244 Eh

For completeness - the Gibbs free energy minus the electronic energy
G-E(el)                           ...      0.08032939 Eh     50.41 kcal/mol


Timings for individual modules:

Sum of individual times         ...      189.266 sec (=   3.154 min)
GTO integral calculation        ...        2.225 sec (=   0.037 min)   1.2 %
SCF iterations                  ...       59.548 sec (=   0.992 min)  31.5 %
SCF Gradient evaluation         ...       27.753 sec (=   0.463 min)  14.7 %
Geometry relaxation             ...        0.770 sec (=   0.013 min)   0.4 %
Analytical frequency calculation...       98.970 sec (=   1.649 min)  52.3 %
                             ****ORCA TERMINATED NORMALLY****
TOTAL RUN TIME: 0 days 0 hours 3 minutes 10 seconds 366 msec
