
                                 *****************
                                 * O   R   C   A *
                                 *****************

                                            #,                                       
                                            ###                                      
                                            ####                                     
                                            #####                                    
                                            ######                                   
                                           ########,                                 
                                     ,,################,,,,,                         
                               ,,#################################,,                 
                          ,,##########################################,,             
                       ,#########################################, ''#####,          
                    ,#############################################,,   '####,        
                  ,##################################################,,,,####,       
                ,###########''''           ''''###############################       
              ,#####''   ,,,,##########,,,,          '''####'''          '####       
            ,##' ,,,,###########################,,,                        '##       
           ' ,,###''''                  '''############,,,                           
         ,,##''                                '''############,,,,        ,,,,,,###''
      ,#''                                            '''#######################'''  
     '                                                          ''''####''''         
             ,#######,   #######,   ,#######,      ##                                
            ,#'     '#,  ##    ##  ,#'     '#,    #''#        ######   ,####,        
            ##       ##  ##   ,#'  ##            #'  '#       #        #'  '#        
            ##       ##  #######   ##           ,######,      #####,   #    #        
            '#,     ,#'  ##    ##  '#,     ,#' ,#      #,         ##   #,  ,#        
             '#######'   ##     ##  '#######'  #'      '#     #####' # '####'        



                  #######################################################
                  #                        -***-                        #
                  #          Department of theory and spectroscopy      #
                  #    Directorship and core code : Frank Neese         #
                  #        Max Planck Institute fuer Kohlenforschung    #
                  #                Kaiser Wilhelm Platz 1               #
                  #                 D-45470 Muelheim/Ruhr               #
                  #                      Germany                        #
                  #                                                     #
                  #                  All rights reserved                #
                  #                        -***-                        #
                  #######################################################


                         Program Version 5.0.3 -  RELEASE  -


 With contributions from (in alphabetic order):
   Daniel Aravena         : Magnetic Suceptibility
   Michael Atanasov       : Ab Initio Ligand Field Theory (pilot matlab implementation)
   Alexander A. Auer      : GIAO ZORA, VPT2 properties, NMR spectrum
   Ute Becker             : Parallelization
   Giovanni Bistoni       : ED, misc. LED, open-shell LED, HFLD
   Martin Brehm           : Molecular dynamics
   Dmytro Bykov           : SCF Hessian
   Vijay G. Chilkuri      : MRCI spin determinant printing, contributions to CSF-ICE
   Dipayan Datta          : RHF DLPNO-CCSD density
   Achintya Kumar Dutta   : EOM-CC, STEOM-CC
   Dmitry Ganyushin       : Spin-Orbit,Spin-Spin,Magnetic field MRCI
   Miquel Garcia          : C-PCM and meta-GGA Hessian, CC/C-PCM, Gaussian charge scheme
   Yang Guo               : DLPNO-NEVPT2, F12-NEVPT2, CIM, IAO-localization
   Andreas Hansen         : Spin unrestricted coupled pair/coupled cluster methods
   Benjamin Helmich-Paris : MC-RPA, TRAH-SCF, COSX integrals
   Lee Huntington         : MR-EOM, pCC
   Robert Izsak           : Overlap fitted RIJCOSX, COSX-SCS-MP3, EOM
   Marcus Kettner         : VPT2
   Christian Kollmar      : KDIIS, OOCD, Brueckner-CCSD(T), CCSD density, CASPT2, CASPT2-K
   Simone Kossmann        : Meta GGA functionals, TD-DFT gradient, OOMP2, MP2 Hessian
   Martin Krupicka        : Initial AUTO-CI
   Lucas Lang             : DCDCAS
   Marvin Lechner         : AUTO-CI (C++ implementation), FIC-MRCC
   Dagmar Lenk            : GEPOL surface, SMD
   Dimitrios Liakos       : Extrapolation schemes; Compound Job, initial MDCI parallelization
   Dimitrios Manganas     : Further ROCIS development; embedding schemes
   Dimitrios Pantazis     : SARC Basis sets
   Anastasios Papadopoulos: AUTO-CI, single reference methods and gradients
   Taras Petrenko         : DFT Hessian,TD-DFT gradient, ASA, ECA, R-Raman, ABS, FL, XAS/XES, NRVS
   Peter Pinski           : DLPNO-MP2, DLPNO-MP2 Gradient
   Christoph Reimann      : Effective Core Potentials
   Marius Retegan         : Local ZFS, SOC
   Christoph Riplinger    : Optimizer, TS searches, QM/MM, DLPNO-CCSD(T), (RO)-DLPNO pert. Triples
   Tobias Risthaus        : Range-separated hybrids, TD-DFT gradient, RPA, STAB
   Michael Roemelt        : Original ROCIS implementation
   Masaaki Saitow         : Open-shell DLPNO-CCSD energy and density
   Barbara Sandhoefer     : DKH picture change effects
   Avijit Sen             : IP-ROCIS
   Kantharuban Sivalingam : CASSCF convergence, NEVPT2, FIC-MRCI
   Bernardo de Souza      : ESD, SOC TD-DFT
   Georgi Stoychev        : AutoAux, RI-MP2 NMR, DLPNO-MP2 response
   Willem Van den Heuvel  : Paramagnetic NMR
   Boris Wezisla          : Elementary symmetry handling
   Frank Wennmohs         : Technical directorship


 We gratefully acknowledge several colleagues who have allowed us to
 interface, adapt or use parts of their codes:
   Stefan Grimme, W. Hujo, H. Kruse, P. Pracht,  : VdW corrections, initial TS optimization,
                  C. Bannwarth, S. Ehlert          DFT functionals, gCP, sTDA/sTD-DF
   Ed Valeev, F. Pavosevic, A. Kumar             : LibInt (2-el integral package), F12 methods
   Garnet Chan, S. Sharma, J. Yang, R. Olivares  : DMRG
   Ulf Ekstrom                                   : XCFun DFT Library
   Mihaly Kallay                                 : mrcc  (arbitrary order and MRCC methods)
   Jiri Pittner, Ondrej Demel                    : Mk-CCSD
   Frank Weinhold                                : gennbo (NPA and NBO analysis)
   Christopher J. Cramer and Donald G. Truhlar   : smd solvation model
   Lars Goerigk                                  : TD-DFT with DH, B97 family of functionals
   V. Asgeirsson, H. Jonsson                     : NEB implementation
   FAccTs GmbH                                   : IRC, NEB, NEB-TS, DLPNO-Multilevel, CI-OPT
                                                   MM, QMMM, 2- and 3-layer-ONIOM, Crystal-QMMM,
                                                   LR-CPCM, SF, NACMEs, symmetry and pop. for TD-DFT,
                                                   nearIR, NL-DFT gradient (VV10), updates on ESD,
                                                   ML-optimized integration grids
   S Lehtola, MJT Oliveira, MAL Marques          : LibXC Library
   Liviu Ungur et al                             : ANISO software


 Your calculation uses the libint2 library for the computation of 2-el integrals
 For citations please refer to: http://libint.valeyev.net

 Your ORCA version has been built with support for libXC version: 5.1.0
 For citations please refer to: https://tddft.org/programs/libxc/

 This ORCA versions uses:
   CBLAS   interface :  Fast vector & matrix operations
   LAPACKE interface :  Fast linear algebra routines
   SCALAPACK package :  Parallel linear algebra routines
   Shared memory     :  Shared parallel matrices
   BLAS/LAPACK       :  OpenBLAS 0.3.15  USE64BITINT DYNAMIC_ARCH NO_AFFINITY Haswell SINGLE_THREADED
        Core in use  :  Haswell
   Copyright (c) 2011-2014, The OpenBLAS Project


================================================================================

----- Orbital basis set information -----
Your calculation utilizes the basis: 6-31G*
   H-He, Li-Ne : W. J. Hehre, R. Ditchfield and J.A. Pople, J. Chem. Phys. 56, 2257 (1972).
                 Note: He and Ne are unpublished basis sets taken from the Gaussian program.
                 Note: Li and B from J. D. Dill and J. A. Pople, J. Chem. Phys. 62, 2921 (1975).
   Na - Ar     : M. M. Francl, W. J. Pietro, W. J. Hehre, J. S. Binkley, M. S. Gordon, 
                 D. J. DeFrees and J. A. Pople, J. Chem. Phys. 77, 3654 (1982).
   K - Zn      : V. A. Rassolov, J. A. Pople, M. A. Ratner, and T. L. Windus, J. Chem. Phys. 109, 1223 (1998).

----- AuxJ basis set information -----
Your calculation utilizes the auxiliary basis: def2/J
   F. Weigend, Phys. Chem. Chem. Phys. 8, 1057 (2006).

================================================================================
                                        WARNINGS
                       Please study these warnings very carefully!
================================================================================


WARNING: Geometry Optimization
  ===> : Switching off AutoStart
         For restart on a previous wavefunction, please use MOREAD

INFO   : the flag for use of the SHARK integral package has been found!

================================================================================
                                       INPUT FILE
================================================================================
NAME = benzene_b3lyp
|  1> ! B3LYP 6-31g* OPT ANFREQ NoFrozenCore
|  2> 
|  3> *xyz 0 1 
|  4> 
|  5>  C     0.000000     0.000000     0.000000
|  6>  C     0.000000     0.000000     1.400000
|  7>  C     1.212436     0.000000     2.100000
|  8>  C     2.424871     0.000000     1.400000
|  9>  C     2.424871     0.000000     0.000000
| 10>  C     1.212436     0.000000    -0.700000
| 11>  H    -0.943102     0.000000     1.944500
| 12>  H     1.212436     0.000000     3.189000
| 13>  H     3.367973     0.000000     1.944500
| 14>  H     3.367973     0.000000    -0.544500
| 15>  H     1.212436     0.000000    -1.789000
| 16>  H    -1.026719     0.000000    -0.363000
| 17> *
| 18> 
| 19>                          ****END OF INPUT****
================================================================================

                       *****************************
                       * Geometry Optimization Run *
                       *****************************

Geometry optimization settings:
Update method            Update   .... BFGS
Choice of coordinates    CoordSys .... Z-matrix Internals
Initial Hessian          InHess   .... Almoef's Model

Convergence Tolerances:
Energy Change            TolE     ....  5.0000e-06 Eh
Max. Gradient            TolMAXG  ....  3.0000e-04 Eh/bohr
RMS Gradient             TolRMSG  ....  1.0000e-04 Eh/bohr
Max. Displacement        TolMAXD  ....  4.0000e-03 bohr
RMS Displacement         TolRMSD  ....  2.0000e-03 bohr
Strict Convergence                ....  False
------------------------------------------------------------------------------
                        ORCA OPTIMIZATION COORDINATE SETUP
------------------------------------------------------------------------------

The optimization will be done in new redundant internal coordinates
Making redundant internal coordinates   ...  (new redundants) done
Evaluating the initial hessian          ...  (Almloef) done
Evaluating the coordinates              ...  done
Calculating the B-matrix                .... done
Calculating the G-matrix                .... done
Diagonalizing the G-matrix              .... done
The first mode is                       ....   24
The number of degrees of freedom        ....   30

    -----------------------------------------------------------------
                    Redundant Internal Coordinates


    -----------------------------------------------------------------
         Definition                    Initial Value    Approx d2E/dq
    -----------------------------------------------------------------
      1. B(C   1,C   0)                  1.4000         0.602260   
      2. B(C   2,C   1)                  1.4000         0.602259   
      3. B(C   3,C   2)                  1.4000         0.602261   
      4. B(C   4,C   3)                  1.4000         0.602260   
      5. B(C   5,C   4)                  1.4000         0.602261   
      6. B(C   5,C   0)                  1.4000         0.602259   
      7. B(H   6,C   1)                  1.0890         0.361425   
      8. B(H   7,C   2)                  1.0890         0.361425   
      9. B(H   8,C   3)                  1.0890         0.361425   
     10. B(H   9,C   4)                  1.0890         0.361425   
     11. B(H  10,C   5)                  1.0890         0.361425   
     12. B(H  11,C   0)                  1.0890         0.361425   
     13. A(C   1,C   0,H  11)          109.4712         0.351399   
     14. A(C   5,C   0,H  11)          130.5288         0.351399   
     15. A(C   1,C   0,C   5)          120.0000         0.429561   
     16. A(C   0,C   1,C   2)          120.0000         0.429561   
     17. A(C   2,C   1,H   6)          120.0000         0.351399   
     18. A(C   0,C   1,H   6)          120.0000         0.351399   
     19. A(C   3,C   2,H   7)          120.0000         0.351399   
     20. A(C   1,C   2,H   7)          120.0000         0.351399   
     21. A(C   1,C   2,C   3)          120.0000         0.429561   
     22. A(C   2,C   3,C   4)          120.0000         0.429561   
     23. A(C   4,C   3,H   8)          120.0000         0.351399   
     24. A(C   2,C   3,H   8)          120.0000         0.351399   
     25. A(C   5,C   4,H   9)          120.0000         0.351399   
     26. A(C   3,C   4,H   9)          120.0000         0.351399   
     27. A(C   3,C   4,C   5)          120.0000         0.429561   
     28. A(C   0,C   5,H  10)          120.0000         0.351399   
     29. A(C   0,C   5,C   4)          120.0000         0.429561   
     30. A(C   4,C   5,H  10)          120.0000         0.351399   
     31. D(H   6,C   1,C   0,C   5)    180.0000         0.025015   
     32. D(H   6,C   1,C   0,H  11)      0.0000         0.025015   
     33. D(C   2,C   1,C   0,H  11)    180.0000         0.025015   
     34. D(C   2,C   1,C   0,C   5)      0.0000         0.025015   
     35. D(H   7,C   2,C   1,C   0)    180.0000         0.025015   
     36. D(C   3,C   2,C   1,C   0)      0.0000         0.025015   
     37. D(C   3,C   2,C   1,H   6)    180.0000         0.025015   
     38. D(H   7,C   2,C   1,H   6)      0.0000         0.025015   
     39. D(H   8,C   3,C   2,H   7)      0.0000         0.025015   
     40. D(H   8,C   3,C   2,C   1)    180.0000         0.025015   
     41. D(C   4,C   3,C   2,H   7)    180.0000         0.025015   
     42. D(C   4,C   3,C   2,C   1)      0.0000         0.025015   
     43. D(H   9,C   4,C   3,C   2)    180.0000         0.025015   
     44. D(C   5,C   4,C   3,H   8)    180.0000         0.025015   
     45. D(C   5,C   4,C   3,C   2)      0.0000         0.025015   
     46. D(H   9,C   4,C   3,H   8)      0.0000         0.025015   
     47. D(H  10,C   5,C   4,H   9)      0.0000         0.025015   
     48. D(C   0,C   5,C   4,H   9)    180.0000         0.025015   
     49. D(C   0,C   5,C   4,C   3)      0.0000         0.025015   
     50. D(H  10,C   5,C   0,H  11)      0.0000         0.025015   
     51. D(H  10,C   5,C   0,C   1)    180.0000         0.025015   
     52. D(H  10,C   5,C   4,C   3)    180.0000         0.025015   
     53. D(C   4,C   5,C   0,H  11)    180.0000         0.025015   
     54. D(C   4,C   5,C   0,C   1)      0.0000         0.025015   
    -----------------------------------------------------------------

Number of atoms                         .... 12
Number of degrees of freedom            .... 54

         *************************************************************
         *                GEOMETRY OPTIMIZATION CYCLE   1            *
         *************************************************************
---------------------------------
CARTESIAN COORDINATES (ANGSTROEM)
---------------------------------
  C      0.000000    0.000000    0.000000
  C      0.000000    0.000000    1.400000
  C      1.212436    0.000000    2.100000
  C      2.424871    0.000000    1.400000
  C      2.424871    0.000000    0.000000
  C      1.212436    0.000000   -0.700000
  H     -0.943102    0.000000    1.944500
  H      1.212436    0.000000    3.189000
  H      3.367973    0.000000    1.944500
  H      3.367973    0.000000   -0.544500
  H      1.212436    0.000000   -1.789000
  H     -1.026719    0.000000   -0.363000

----------------------------
CARTESIAN COORDINATES (A.U.)
----------------------------
  NO LB      ZA    FRAG     MASS         X           Y           Z
   0 C     6.0000    0    12.011    0.000000    0.000000    0.000000
   1 C     6.0000    0    12.011    0.000000    0.000000    2.645617
   2 C     6.0000    0    12.011    2.291172    0.000000    3.968425
   3 C     6.0000    0    12.011    4.582342    0.000000    2.645617
   4 C     6.0000    0    12.011    4.582342    0.000000    0.000000
   5 C     6.0000    0    12.011    2.291172    0.000000   -1.322808
   6 H     1.0000    0     1.008   -1.782204    0.000000    3.674572
   7 H     1.0000    0     1.008    2.291172    0.000000    6.026337
   8 H     1.0000    0     1.008    6.364547    0.000000    3.674572
   9 H     1.0000    0     1.008    6.364547    0.000000   -1.028956
  10 H     1.0000    0     1.008    2.291172    0.000000   -3.380720
  11 H     1.0000    0     1.008   -1.940218    0.000000   -0.685971

--------------------------------
INTERNAL COORDINATES (ANGSTROEM)
--------------------------------
 C      0   0   0     0.000000000000     0.00000000     0.00000000
 C      1   0   0     1.400000000000     0.00000000     0.00000000
 C      2   1   0     1.400000376463   119.99999110     0.00000000
 C      3   2   1     1.399999510437   119.99999733     0.00000000
 C      4   3   2     1.400000000000   120.00001157     0.00000000
 C      5   4   3     1.399999510437   120.00001157     0.00000000
 H      2   1   3     1.089000290360   119.99999118   180.00000085
 H      3   2   1     1.089000000000   119.99999110   180.00000000
 H      4   3   2     1.089000290360   119.99999725   180.00000085
 H      5   4   3     1.089000290360   119.99999118   180.00000085
 H      6   5   4     1.089000000000   120.00001157   180.00000000
 H      1   2   3     1.088999956364   109.47122145   180.00000085

---------------------------
INTERNAL COORDINATES (A.U.)
---------------------------
 C      0   0   0     0.000000000000     0.00000000     0.00000000
 C      1   0   0     2.645616587490     0.00000000     0.00000000
 C      2   1   0     2.645617298901   119.99999110     0.00000000
 C      3   2   1     2.645615662351   119.99999733     0.00000000
 C      4   3   2     2.645616587490   120.00001157     0.00000000
 C      5   4   3     2.645615662351   120.00001157     0.00000000
 H      2   1   3     2.057912308541   119.99999118   180.00000085
 H      3   2   1     2.057911759840   119.99999110   180.00000000
 H      4   3   2     2.057912308541   119.99999725   180.00000085
 H      5   4   3     2.057912308541   119.99999118   180.00000085
 H      6   5   4     2.057911759840   120.00001157   180.00000000
 H      1   2   3     2.057911677380   109.47122145   180.00000085

---------------------
BASIS SET INFORMATION
---------------------
There are 2 groups of distinct atoms

 Group   1 Type C   : 10s4p1d contracted to 3s2p1d pattern {631/31/1}
 Group   2 Type H   : 4s contracted to 2s pattern {31}

Atom   0C    basis set group =>   1
Atom   1C    basis set group =>   1
Atom   2C    basis set group =>   1
Atom   3C    basis set group =>   1
Atom   4C    basis set group =>   1
Atom   5C    basis set group =>   1
Atom   6H    basis set group =>   2
Atom   7H    basis set group =>   2
Atom   8H    basis set group =>   2
Atom   9H    basis set group =>   2
Atom  10H    basis set group =>   2
Atom  11H    basis set group =>   2
---------------------------------
AUXILIARY/J BASIS SET INFORMATION
---------------------------------
There are 2 groups of distinct atoms

 Group   1 Type C   : 12s5p4d2f1g contracted to 6s4p3d1f1g pattern {711111/2111/211/2/1}
 Group   2 Type H   : 5s2p1d contracted to 3s1p1d pattern {311/2/1}

Atom   0C    basis set group =>   1
Atom   1C    basis set group =>   1
Atom   2C    basis set group =>   1
Atom   3C    basis set group =>   1
Atom   4C    basis set group =>   1
Atom   5C    basis set group =>   1
Atom   6H    basis set group =>   2
Atom   7H    basis set group =>   2
Atom   8H    basis set group =>   2
Atom   9H    basis set group =>   2
Atom  10H    basis set group =>   2
Atom  11H    basis set group =>   2
------------------------------------------------------------------------------
                           ORCA GTO INTEGRAL CALCULATION
                           -- RI-GTO INTEGRALS CHOSEN --
------------------------------------------------------------------------------
------------------------------------------------------------------------------
                   ___                                                        
                  /   \      - P O W E R E D   B Y -                         
                 /     \                                                     
                 |  |  |   _    _      __       _____    __    __             
                 |  |  |  | |  | |    /  \     |  _  \  |  |  /  |          
                  \  \/   | |  | |   /    \    | | | |  |  | /  /          
                 / \  \   | |__| |  /  /\  \   | |_| |  |  |/  /          
                |  |  |   |  __  | /  /__\  \  |    /   |      \           
                |  |  |   | |  | | |   __   |  |    \   |  |\   \          
                \     /   | |  | | |  |  |  |  | |\  \  |  | \   \       
                 \___/    |_|  |_| |__|  |__|  |_| \__\ |__|  \__/        
                                                                              
                      - O R C A' S   B I G   F R I E N D -                    
                                      &                                       
                       - I N T E G R A L  F E E D E R -                       
                                                                              
 v1 FN, 2020, v2 2021                                                         
------------------------------------------------------------------------------


Reading SHARK input file benzene_b3lyp.SHARKINP.tmp ... ok
----------------------
SHARK INTEGRAL PACKAGE
----------------------

Number of atoms                             ...     12
Number of basis functions                   ...     96
Number of shells                            ...     48
Maximum angular momentum                    ...      2
Integral batch strategy                     ... SHARK/LIBINT Hybrid
RI-J (if used) integral strategy            ... SPLIT-RIJ (Revised 2003 algorithm where possible)
Printlevel                                  ...      1
Contraction scheme used                     ... SEGMENTED contraction
Coulomb Range Separation                    ... NOT USED
Exchange Range Separation                   ... NOT USED
Finite Nucleus Model                        ... NOT USED
Auxiliary Coulomb fitting basis             ... AVAILABLE
   # of basis functions in Aux-J            ...    360
   # of shells in Aux-J                     ...    120
   Maximum angular momentum in Aux-J        ...      4
Auxiliary J/K fitting basis                 ... NOT available
Auxiliary Correlation fitting basis         ... NOT available
Auxiliary 'external' fitting basis          ... NOT available
Integral threshold                          ...     2.500000e-11
Primitive cut-off                           ...     2.500000e-12
Primitive pair pre-selection threshold      ...     2.500000e-12

Calculating pre-screening integrals         ... done (  0.1 sec) Dimension = 48
Organizing shell pair data                  ... done (  0.0 sec)
Shell pair information
Total number of shell pairs                 ...      1176
Shell pairs after pre-screening             ...      1158
Total number of primitive shell pairs       ...      6699
Primitive shell pairs kept                  ...      4824
          la=0 lb=0:    447 shell pairs
          la=1 lb=0:    360 shell pairs
          la=1 lb=1:     78 shell pairs
          la=2 lb=0:    180 shell pairs
          la=2 lb=1:     72 shell pairs
          la=2 lb=2:     21 shell pairs

Calculating one electron integrals          ... done (  0.0 sec)
Calculating RI/J V-Matrix + Cholesky decomp.... done (  0.0 sec)
Calculating Nuclear repulsion               ... done (  0.0 sec) ENN=    202.748481991232 Eh

SHARK setup successfully completed in   0.2 seconds

Maximum memory used throughout the entire GTOINT-calculation: 12.7 MB
-------------------------------------------------------------------------------
                                 ORCA SCF
-------------------------------------------------------------------------------

------------
SCF SETTINGS
------------
Hamiltonian:
 Density Functional     Method          .... DFT(GTOs)
 Exchange Functional    Exchange        .... B88
   X-Alpha parameter    XAlpha          ....  0.666667
   Becke's b parameter  XBeta           ....  0.004200
 Correlation Functional Correlation     .... LYP
 LDA part of GGA corr.  LDAOpt          .... VWN-5
 Gradients option       PostSCFGGA      .... off
 Hybrid DFT is turned on
   Fraction HF Exchange ScalHFX         ....  0.200000
   Scaling of DF-GGA-X  ScalDFX         ....  0.720000
   Scaling of DF-GGA-C  ScalDFC         ....  0.810000
   Scaling of DF-LDA-C  ScalLDAC        ....  1.000000
   Perturbative correction              ....  0.000000
   Density functional embedding theory  .... OFF
   NL short-range parameter             ....  4.800000
 RI-approximation to the Coulomb term is turned on
   Number of AuxJ basis functions       .... 360
   RIJ-COSX (HFX calculated with COS-X)).... on


General Settings:
 Integral files         IntName         .... benzene_b3lyp
 Hartree-Fock type      HFTyp           .... RHF
 Total Charge           Charge          ....    0
 Multiplicity           Mult            ....    1
 Number of Electrons    NEL             ....   42
 Basis Dimension        Dim             ....   96
 Nuclear Repulsion      ENuc            ....    202.7484819912 Eh

Convergence Acceleration:
 DIIS                   CNVDIIS         .... on
   Start iteration      DIISMaxIt       ....    12
   Startup error        DIISStart       ....  0.200000
   # of expansion vecs  DIISMaxEq       ....     5
   Bias factor          DIISBfac        ....   1.050
   Max. coefficient     DIISMaxC        ....  10.000
 Trust-Rad. Augm. Hess. CNVTRAH         .... auto
   Auto Start mean grad. ratio tolernc. ....  1.125000
   Auto Start start iteration           ....    20
   Auto Start num. interpolation iter.  ....    10
   Max. Number of Micro iterations      ....    16
   Max. Number of Macro iterations      .... Maxiter - #DIIS iter
   Number of Davidson start vectors     ....     2
   Converg. threshold I  (grad. norm)   ....   1.000e-05
   Converg. threshold II (energy diff.) ....   1.000e-08
   Grad. Scal. Fac. for Micro threshold ....   0.100
   Minimum threshold for Micro iter.    ....   0.010
   NR start threshold (gradient norm)   ....   0.001
   Initial trust radius                 ....   0.400
   Minimum AH scaling param. (alpha)    ....   1.000
   Maximum AH scaling param. (alpha)    .... 1000.000
   Orbital update algorithm             .... Taylor
   White noise on init. David. guess    .... on
   Maximum white noise                  ....   0.010
   Quad. conv. algorithm                .... NR
 SOSCF                  CNVSOSCF        .... on
   Start iteration      SOSCFMaxIt      ....   150
   Startup grad/error   SOSCFStart      ....  0.003300
 Level Shifting         CNVShift        .... on
   Level shift para.    LevelShift      ....    0.2500
   Turn off err/grad.   ShiftErr        ....    0.0010
 Zerner damping         CNVZerner       .... off
 Static damping         CNVDamp         .... on
   Fraction old density DampFac         ....    0.7000
   Max. Damping (<1)    DampMax         ....    0.9800
   Min. Damping (>=0)   DampMin         ....    0.0000
   Turn off err/grad.   DampErr         ....    0.1000
 Fernandez-Rico         CNVRico         .... off

SCF Procedure:
 Maximum # iterations   MaxIter         ....   125
 SCF integral mode      SCFMode         .... Direct
   Integral package                     .... SHARK and LIBINT hybrid scheme
 Reset frequency        DirectResetFreq ....    20
 Integral Threshold     Thresh          ....  2.500e-11 Eh
 Primitive CutOff       TCut            ....  2.500e-12 Eh

Convergence Tolerance:
 Convergence Check Mode ConvCheckMode   .... Total+1el-Energy
 Convergence forced     ConvForced      .... 0
 Energy Change          TolE            ....  1.000e-08 Eh
 1-El. energy change                    ....  1.000e-05 Eh
 Orbital Gradient       TolG            ....  1.000e-05
 Orbital Rotation angle TolX            ....  1.000e-05
 DIIS Error             TolErr          ....  5.000e-07


Diagonalization of the overlap matrix:
Smallest eigenvalue                        ... 5.604e-04
Time for diagonalization                   ...    0.002 sec
Threshold for overlap eigenvalues          ... 1.000e-08
Number of eigenvalues below threshold      ... 0
Time for construction of square roots      ...    0.000 sec
Total time needed                          ...    0.003 sec

Time for model grid setup =    0.152 sec

------------------------------
INITIAL GUESS: MODEL POTENTIAL
------------------------------
Loading Hartree-Fock densities                     ... done
Calculating cut-offs                               ... done
Initializing the effective Hamiltonian             ... done
Setting up the integral package (SHARK)            ... done
Starting the Coulomb interaction                   ... done (   0.1 sec)
Reading the grid                                   ... done
Mapping shells                                     ... done
Starting the XC term evaluation                    ... done (   0.2 sec)
  promolecular density results
     # of electrons  =     41.996234849
     EX              =    -32.594728741
     EC              =     -1.376262660
     EX+EC           =    -33.970991401
Transforming the Hamiltonian                       ... done (   0.0 sec)
Diagonalizing the Hamiltonian                      ... done (   0.0 sec)
Back transforming the eigenvectors                 ... done (   0.0 sec)
Now organizing SCF variables                       ... done
                      ------------------
                      INITIAL GUESS DONE (   0.4 sec)
                      ------------------
-------------------
DFT GRID GENERATION
-------------------

General Integration Accuracy     IntAcc      ... 4.388
Radial Grid Type                 RadialGrid  ... OptM3 with GC (2021)
Angular Grid (max. ang.)         AngularGrid ... 4 (Lebedev-302)
Angular grid pruning method      GridPruning ... 4 (adaptive)
Weight generation scheme         WeightScheme... Becke
Basis function cutoff            BFCut       ... 1.0000e-11
Integration weight cutoff        WCut        ... 1.0000e-14
Angular grids for H and He will be reduced by one unit
Partially contracted basis set               ... off
Rotationally invariant grid construction     ... off

Total number of grid points                  ...    55521
Total number of batches                      ...      873
Average number of points per batch           ...       63
Average number of grid points per atom       ...     4627
Time for grid setup =    0.607 sec

--------------------
COSX GRID GENERATION
--------------------

GRIDX 1
-------
General Integration Accuracy     IntAcc      ... 3.816
Radial Grid Type                 RadialGrid  ... OptM3 with GC (2021)
Angular Grid (max. ang.)         AngularGrid ... 1 (Lebedev-50)
Angular grid pruning method      GridPruning ... 4 (adaptive)
Weight generation scheme         WeightScheme... Becke
Basis function cutoff            BFCut       ... 1.0000e-11
Integration weight cutoff        WCut        ... 1.0000e-14
Angular grids for H and He will be reduced by one unit
Partially contracted basis set               ... on
Rotationally invariant grid construction     ... off

Total number of grid points                  ...     7124
Total number of batches                      ...      114
Average number of points per batch           ...       62
Average number of grid points per atom       ...      594
UseSFitting                                  ... on

GRIDX 2
-------
General Integration Accuracy     IntAcc      ... 4.020
Radial Grid Type                 RadialGrid  ... OptM3 with GC (2021)
Angular Grid (max. ang.)         AngularGrid ... 2 (Lebedev-110)
Angular grid pruning method      GridPruning ... 4 (adaptive)
Weight generation scheme         WeightScheme... Becke
Basis function cutoff            BFCut       ... 1.0000e-11
Integration weight cutoff        WCut        ... 1.0000e-14
Angular grids for H and He will be reduced by one unit
Partially contracted basis set               ... on
Rotationally invariant grid construction     ... off

Total number of grid points                  ...    15464
Total number of batches                      ...      249
Average number of points per batch           ...       62
Average number of grid points per atom       ...     1289
UseSFitting                                  ... on

GRIDX 3
-------
General Integration Accuracy     IntAcc      ... 4.338
Radial Grid Type                 RadialGrid  ... OptM3 with GC (2021)
Angular Grid (max. ang.)         AngularGrid ... 3 (Lebedev-194)
Angular grid pruning method      GridPruning ... 4 (adaptive)
Weight generation scheme         WeightScheme... Becke
Basis function cutoff            BFCut       ... 1.0000e-11
Integration weight cutoff        WCut        ... 1.0000e-14
Angular grids for H and He will be reduced by one unit
Partially contracted basis set               ... on
Rotationally invariant grid construction     ... off

Total number of grid points                  ...    34049
Total number of batches                      ...      537
Average number of points per batch           ...       63
Average number of grid points per atom       ...     2837
UseSFitting                                  ... on

Time for X-Grid setup             =    0.699 sec

--------------
SCF ITERATIONS
--------------
ITER       Energy         Delta-E        Max-DP      RMS-DP      [F,P]     Damp
               ***  Starting incremental Fock matrix formation  ***
  0   -231.9424855704   0.000000000000 0.04241452  0.00279059  0.1214730 0.7000
  1   -232.0060202308  -0.063534660388 0.03169466  0.00210815  0.0667237 0.7000
                               ***Turning on DIIS***
  2   -232.0343837997  -0.028363568876 0.05604661  0.00363394  0.0294612 0.0000
  3   -232.0743775245  -0.039993724850 0.02413023  0.00146316  0.0403106 0.0000
  4   -232.0848148516  -0.010437327070 0.00932374  0.00045014  0.0081236 0.0000
                      *** Initiating the SOSCF procedure ***
                           *** Shutting down DIIS ***
                      *** Re-Reading the Fockian *** 
                      *** Removing any level shift *** 
ITER      Energy       Delta-E        Grad      Rot      Max-DP    RMS-DP
  5   -232.08535890  -0.0005440461  0.000712  0.000712  0.002840  0.000138
               *** Restarting incremental Fock matrix formation ***
  6   -232.08538389  -0.0000249953  0.000265  0.000521  0.001396  0.000071
  7   -232.08538459  -0.0000006930  0.000186  0.000141  0.000200  0.000014
  8   -232.08538513  -0.0000005478  0.000032  0.000070  0.000132  0.000007
  9   -232.08538515  -0.0000000112  0.000029  0.000056  0.000051  0.000002
 10   -232.08538515  -0.0000000068  0.000012  0.000016  0.000037  0.000002
 11   -232.08538515  -0.0000000003  0.000006  0.000006  0.000013  0.000001
                  ***Gradient check signals convergence***
              ***Rediagonalizing the Fockian in SOSCF/NRSCF***

               *****************************************************
               *                     SUCCESS                       *
               *           SCF CONVERGED AFTER  12 CYCLES          *
               *****************************************************

Old exchange energy                            =     -6.646466367 Eh
New exchange energy                            =     -6.646481905 Eh
Exchange energy change after final integration =     -0.000015538 Eh
Total energy after final integration           =   -232.085400693 Eh
Final COS-X integration done in                =     4.730 sec

----------------
TOTAL SCF ENERGY
----------------

Total Energy       :         -232.08540069 Eh           -6315.36482 eV

Components:
Nuclear Repulsion  :          202.74848199 Eh            5517.06668 eV
Electronic Energy  :         -434.83388268 Eh          -11832.43150 eV
One Electron Energy:         -712.93925666 Eh          -19400.06345 eV
Two Electron Energy:          278.10537398 Eh            7567.63196 eV
Max COSX asymmetry :            0.00000111 Eh               0.00003 eV

Virial components:
Potential Energy   :         -462.72327623 Eh          -12591.34048 eV
Kinetic Energy     :          230.63787553 Eh            6275.97566 eV
Virial Ratio       :            2.00627618


DFT components:
N(Alpha)           :       21.000018510536 electrons
N(Beta)            :       21.000018510536 electrons
N(Total)           :       42.000037021072 electrons
E(X)               :      -26.367874416088 Eh       
E(C)               :       -1.632997571425 Eh       
E(XC)              :      -28.000871987513 Eh       
DFET-embed. en.    :        0.000000000000 Eh       

---------------
SCF CONVERGENCE
---------------

  Last Energy change         ...   -2.4955e-09  Tolerance :   1.0000e-08
  Last MAX-Density change    ...    1.3323e-15  Tolerance :   1.0000e-07
  Last RMS-Density change    ...    4.8385e-17  Tolerance :   5.0000e-09
  Last Orbital Gradient      ...    1.5103e-06  Tolerance :   1.0000e-05
  Last Orbital Rotation      ...    3.0698e-06  Tolerance :   1.0000e-05

             **** THE GBW FILE WAS UPDATED (benzene_b3lyp.gbw) ****
             **** DENSITY benzene_b3lyp.scfp WAS UPDATED ****
             **** ENERGY FILE WAS UPDATED (benzene_b3lyp.en.tmp) ****
             **** THE GBW FILE WAS UPDATED (benzene_b3lyp.gbw) ****
             **** DENSITY benzene_b3lyp.scfp WAS UPDATED ****
----------------
ORBITAL ENERGIES
----------------

  NO   OCC          E(Eh)            E(eV) 
   0   2.0000     -10.181491      -277.0525 
   1   2.0000     -10.179769      -277.0056 
   2   2.0000     -10.178637      -276.9748 
   3   2.0000     -10.178553      -276.9725 
   4   2.0000     -10.177447      -276.9424 
   5   2.0000     -10.176135      -276.9067 
   6   2.0000      -0.841283       -22.8925 
   7   2.0000      -0.736952       -20.0535 
   8   2.0000      -0.734461       -19.9857 
   9   2.0000      -0.597269       -16.2525 
  10   2.0000      -0.590449       -16.0669 
  11   2.0000      -0.513981       -13.9861 
  12   2.0000      -0.456380       -12.4187 
  13   2.0000      -0.435110       -11.8399 
  14   2.0000      -0.413345       -11.2477 
  15   2.0000      -0.410951       -11.1825 
  16   2.0000      -0.354999        -9.6600 
  17   2.0000      -0.340320        -9.2606 
  18   2.0000      -0.331283        -9.0147 
  19   2.0000      -0.242670        -6.6034 
  20   2.0000      -0.242514        -6.5992 
  21   0.0000       0.005799         0.1578 
  22   0.0000       0.006543         0.1780 
  23   0.0000       0.092863         2.5269 
  24   0.0000       0.144353         3.9280 
  25   0.0000       0.148167         4.0318 
  26   0.0000       0.165610         4.5065 
  27   0.0000       0.177125         4.8198 
  28   0.0000       0.187060         5.0902 
  29   0.0000       0.195434         5.3180 
  30   0.0000       0.299354         8.1458 
  31   0.0000       0.308122         8.3844 
  32   0.0000       0.315670         8.5898 
  33   0.0000       0.326179         8.8758 
  34   0.0000       0.477338        12.9890 
  35   0.0000       0.531007        14.4494 
  36   0.0000       0.545139        14.8340 
  37   0.0000       0.553154        15.0521 
  38   0.0000       0.563414        15.3313 
  39   0.0000       0.603430        16.4202 
  40   0.0000       0.605175        16.4676 
  41   0.0000       0.605347        16.4723 
  42   0.0000       0.605848        16.4860 
  43   0.0000       0.612346        16.6628 
  44   0.0000       0.635681        17.2978 
  45   0.0000       0.643111        17.4999 
  46   0.0000       0.669891        18.2287 
  47   0.0000       0.670969        18.2580 
  48   0.0000       0.747611        20.3435 
  49   0.0000       0.841375        22.8950 
  50   0.0000       0.843557        22.9543 
  51   0.0000       0.844520        22.9806 
  52   0.0000       0.862653        23.4740 
  53   0.0000       0.872862        23.7518 
  54   0.0000       0.943239        25.6668 
  55   0.0000       0.943561        25.6756 
  56   0.0000       0.946354        25.7516 
  57   0.0000       0.958451        26.0808 
  58   0.0000       1.076858        29.3028 
  59   0.0000       1.095941        29.8221 
  60   0.0000       1.132515        30.8173 
  61   0.0000       1.161124        31.5958 
  62   0.0000       1.211546        32.9679 
  63   0.0000       1.264888        34.4193 
  64   0.0000       1.401139        38.1269 
  65   0.0000       1.438143        39.1339 
  66   0.0000       1.443329        39.2750 
  67   0.0000       1.487922        40.4884 
  68   0.0000       1.489934        40.5432 
  69   0.0000       1.518050        41.3082 
  70   0.0000       1.519216        41.3400 
  71   0.0000       1.768068        48.1116 
  72   0.0000       1.790828        48.7309 
  73   0.0000       1.857157        50.5358 
  74   0.0000       1.889181        51.4072 
  75   0.0000       1.965321        53.4791 
  76   0.0000       1.975210        53.7482 
  77   0.0000       2.062547        56.1248 
  78   0.0000       2.075230        56.4699 
  79   0.0000       2.151466        58.5444 
  80   0.0000       2.153483        58.5993 
  81   0.0000       2.153550        58.6011 
  82   0.0000       2.162162        58.8354 
  83   0.0000       2.308573        62.8195 
  84   0.0000       2.309599        62.8474 
  85   0.0000       2.320803        63.1523 
  86   0.0000       2.543210        69.2043 
  87   0.0000       2.551827        69.4387 
  88   0.0000       2.653324        72.2006 
  89   0.0000       2.684108        73.0383 
  90   0.0000       2.708250        73.6952 
  91   0.0000       2.722464        74.0820 
  92   0.0000       2.733513        74.3827 
  93   0.0000       2.762481        75.1709 
  94   0.0000       3.019024        82.1518 
  95   0.0000       3.393510        92.3421 

                    ********************************
                    * MULLIKEN POPULATION ANALYSIS *
                    ********************************

-----------------------
MULLIKEN ATOMIC CHARGES
-----------------------
   0 C :   -0.119745
   1 C :   -0.129043
   2 C :   -0.123606
   3 C :   -0.127764
   4 C :   -0.125729
   5 C :   -0.136779
   6 H :    0.126555
   7 H :    0.124785
   8 H :    0.126966
   9 H :    0.128483
  10 H :    0.128219
  11 H :    0.127658
Sum of atomic charges:   -0.0000000

--------------------------------
MULLIKEN REDUCED ORBITAL CHARGES
--------------------------------
  0 C s       :     3.186865  s :     3.186865
      pz      :     0.957245  p :     2.896894
      px      :     0.948200
      py      :     0.991450
      dz2     :     0.010399  d :     0.035986
      dxz     :     0.010673
      dyz     :     0.005087
      dx2y2   :     0.006894
      dxy     :     0.002933
  1 C s       :     3.180576  s :     3.180576
      pz      :     0.943183  p :     2.912264
      px      :     0.978800
      py      :     0.990281
      dz2     :     0.008624  d :     0.036203
      dxz     :     0.013945
      dyz     :     0.004973
      dx2y2   :     0.005768
      dxy     :     0.002893
  2 C s       :     3.186413  s :     3.186413
      pz      :     0.978740  p :     2.901350
      px      :     0.933694
      py      :     0.988916
      dz2     :     0.012668  d :     0.035843
      dxz     :     0.009916
      dyz     :     0.001906
      dx2y2   :     0.005335
      dxy     :     0.006017
  3 C s       :     3.187674  s :     3.187674
      pz      :     0.944293  p :     2.904212
      px      :     0.967872
      py      :     0.992048
      dz2     :     0.008797  d :     0.035877
      dxz     :     0.013364
      dyz     :     0.005032
      dx2y2   :     0.005740
      dxy     :     0.002945
  4 C s       :     3.188424  s :     3.188424
      pz      :     0.941936  p :     2.901396
      px      :     0.965538
      py      :     0.993922
      dz2     :     0.008711  d :     0.035909
      dxz     :     0.013437
      dyz     :     0.005058
      dx2y2   :     0.005721
      dxy     :     0.002982
  5 C s       :     3.194233  s :     3.194233
      pz      :     0.980051  p :     2.906526
      px      :     0.931008
      py      :     0.995467
      dz2     :     0.012631  d :     0.036020
      dxz     :     0.009966
      dyz     :     0.001960
      dx2y2   :     0.005331
      dxy     :     0.006131
  6 H s       :     0.873445  s :     0.873445
  7 H s       :     0.875215  s :     0.875215
  8 H s       :     0.873034  s :     0.873034
  9 H s       :     0.871517  s :     0.871517
 10 H s       :     0.871781  s :     0.871781
 11 H s       :     0.872342  s :     0.872342


                     *******************************
                     * LOEWDIN POPULATION ANALYSIS *
                     *******************************

----------------------
LOEWDIN ATOMIC CHARGES
----------------------
   0 C :   -0.132186
   1 C :   -0.132624
   2 C :   -0.129991
   3 C :   -0.129967
   4 C :   -0.129408
   5 C :   -0.128450
   6 H :    0.128646
   7 H :    0.128854
   8 H :    0.129959
   9 H :    0.131012
  10 H :    0.130944
  11 H :    0.133212

-------------------------------
LOEWDIN REDUCED ORBITAL CHARGES
-------------------------------
  0 C s       :     2.919701  s :     2.919701
      pz      :     1.075104  p :     3.128397
      px      :     1.069963
      py      :     0.983330
      dz2     :     0.027266  d :     0.084088
      dxz     :     0.027588
      dyz     :     0.010723
      dx2y2   :     0.012883
      dxy     :     0.005628
  1 C s       :     2.921761  s :     2.921761
      pz      :     1.073669  p :     3.125961
      px      :     1.070544
      py      :     0.981748
      dz2     :     0.023661  d :     0.084903
      dxz     :     0.033917
      dyz     :     0.010640
      dx2y2   :     0.011140
      dxy     :     0.005545
  2 C s       :     2.921002  s :     2.921002
      pz      :     1.070992  p :     3.124777
      px      :     1.072781
      py      :     0.981003
      dz2     :     0.026518  d :     0.084212
      dxz     :     0.026741
      dyz     :     0.003062
      dx2y2   :     0.014736
      dxy     :     0.013155
  3 C s       :     2.920227  s :     2.920227
      pz      :     1.070619  p :     3.125571
      px      :     1.071215
      py      :     0.983737
      dz2     :     0.023939  d :     0.084170
      dxz     :     0.032886
      dyz     :     0.010704
      dx2y2   :     0.011059
      dxy     :     0.005583
  4 C s       :     2.919708  s :     2.919708
      pz      :     1.070956  p :     3.125533
      px      :     1.069210
      py      :     0.985367
      dz2     :     0.023735  d :     0.084167
      dxz     :     0.033027
      dyz     :     0.010750
      dx2y2   :     0.011006
      dxy     :     0.005650
  5 C s       :     2.918321  s :     2.918321
      pz      :     1.072080  p :     3.125833
      px      :     1.066779
      py      :     0.986975
      dz2     :     0.026546  d :     0.084296
      dxz     :     0.026734
      dyz     :     0.003093
      dx2y2   :     0.014616
      dxy     :     0.013307
  6 H s       :     0.871354  s :     0.871354
  7 H s       :     0.871146  s :     0.871146
  8 H s       :     0.870041  s :     0.870041
  9 H s       :     0.868988  s :     0.868988
 10 H s       :     0.869056  s :     0.869056
 11 H s       :     0.866788  s :     0.866788


                      *****************************
                      * MAYER POPULATION ANALYSIS *
                      *****************************

  NA   - Mulliken gross atomic population
  ZA   - Total nuclear charge
  QA   - Mulliken gross atomic charge
  VA   - Mayer's total valence
  BVA  - Mayer's bonded valence
  FA   - Mayer's free valence

  ATOM       NA         ZA         QA         VA         BVA        FA
  0 C      6.1197     6.0000    -0.1197     3.9468     3.9468    -0.0000
  1 C      6.1290     6.0000    -0.1290     3.9622     3.9622     0.0000
  2 C      6.1236     6.0000    -0.1236     3.9614     3.9614     0.0000
  3 C      6.1278     6.0000    -0.1278     3.9522     3.9522    -0.0000
  4 C      6.1257     6.0000    -0.1257     3.9467     3.9467    -0.0000
  5 C      6.1368     6.0000    -0.1368     3.9389     3.9389    -0.0000
  6 H      0.8734     1.0000     0.1266     0.9367     0.9367     0.0000
  7 H      0.8752     1.0000     0.1248     0.9371     0.9371     0.0000
  8 H      0.8730     1.0000     0.1270     0.9373     0.9373    -0.0000
  9 H      0.8715     1.0000     0.1285     0.9376     0.9376     0.0000
 10 H      0.8718     1.0000     0.1282     0.9375     0.9375    -0.0000
 11 H      0.8723     1.0000     0.1277     0.9374     0.9374    -0.0000

  Mayer bond orders larger than 0.100000
B(  0-C ,  1-C ) :   1.4601 B(  0-C ,  5-C ) :   1.4456 B(  0-C , 11-H ) :   0.9302 
B(  1-C ,  2-C ) :   1.4640 B(  1-C ,  6-H ) :   0.9299 B(  2-C ,  3-C ) :   1.4588 
B(  2-C ,  7-H ) :   0.9300 B(  3-C ,  4-C ) :   1.4521 B(  3-C ,  8-H ) :   0.9305 
B(  4-C ,  5-C ) :   1.4500 B(  4-C ,  9-H ) :   0.9312 B(  5-C , 10-H ) :   0.9310 


-------
TIMINGS
-------

Total SCF time: 0 days 0 hours 0 min 35 sec 

Total time                  ....      35.954 sec
Sum of individual times     ....      35.776 sec  ( 99.5%)

Fock matrix formation       ....      34.058 sec  ( 94.7%)
  Split-RI-J                ....       2.637 sec  (  7.7% of F)
  Chain of spheres X        ....      24.583 sec  ( 72.2% of F)
  XC integration            ....       6.689 sec  ( 19.6% of F)
    Basis function eval.    ....       3.089 sec  ( 46.2% of XC)
    Density eval.           ....       1.224 sec  ( 18.3% of XC)
    XC-Functional eval.     ....       0.933 sec  ( 14.0% of XC)
    XC-Potential eval.      ....       1.194 sec  ( 17.8% of XC)
Diagonalization             ....       0.013 sec  (  0.0%)
Density matrix formation    ....       0.001 sec  (  0.0%)
Population analysis         ....       0.004 sec  (  0.0%)
Initial guess               ....       0.233 sec  (  0.6%)
Orbital Transformation      ....       0.000 sec  (  0.0%)
Orbital Orthonormalization  ....       0.000 sec  (  0.0%)
DIIS solution               ....       0.002 sec  (  0.0%)
SOSCF solution              ....       0.006 sec  (  0.0%)
Grid generation             ....       1.459 sec  (  4.1%)

Maximum memory used throughout the entire SCF-calculation: 57.0 MB

-------------------------   --------------------
FINAL SINGLE POINT ENERGY      -232.085400692937
-------------------------   --------------------

------------------------------------------------------------------------------
                         ORCA SCF GRADIENT CALCULATION
------------------------------------------------------------------------------

 ... reading COSX grid (gridx3)
Gradient of the Kohn-Sham DFT energy:
Kohn-Sham wavefunction type      ... RKS
Hartree-Fock exchange scaling    ...    0.200
Number of operators              ...    1
Number of atoms                  ...   12
Basis set dimensions             ...   96
Integral neglect threshold       ... 2.5e-11
Integral primitive cutoff        ... 2.5e-12
SHARK Integral package           ... ON

Nuc. rep. gradient       (SHARK) ... done (  0.0 sec)
HCore & Overlap gradient (SHARK) ... done (  0.1 sec)
RI-J gradient            (SHARK) ... done (  0.7 sec)
COSX-gradient                    ... done (  5.5 sec)
Exchange-correlation gradient    ... done

------------------
CARTESIAN GRADIENT
------------------

   1   C   :    0.008793615    0.000000000   -0.020982432
   2   C   :   -0.012630053    0.000000000   -0.003994224
   3   C   :    0.000226011    0.000000003   -0.000563986
   4   C   :    0.001483597    0.000000003    0.000280193
   5   C   :    0.002621987   -0.000000002   -0.001890260
   6   C   :    0.007356734   -0.000000007    0.005080135
   7   H   :   -0.001176547    0.000000001    0.000911340
   8   H   :   -0.000549929   -0.000000004    0.000957877
   9   H   :    0.001030281    0.000000002    0.000691426
  10   H   :    0.001541240   -0.000000000   -0.000292422
  11   H   :   -0.000421361    0.000000002   -0.001017379
  12   H   :   -0.008248068    0.000000001    0.020846933

Difference to translation invariance:
           :    0.0000275069   -0.0000000011    0.0000271998

Difference to rotation invariance:
           :   -0.0000000093    0.0000203901    0.0000000029

Norm of the cartesian gradient     ...    0.0360189007
RMS gradient                       ...    0.0060031501
MAX gradient                       ...    0.0209824320

-------
TIMINGS
-------

Total SCF gradient time            ...        9.832 sec

One electron gradient       ....       0.110 sec  (  1.1%)
RI-J Coulomb gradient       ....       0.692 sec  (  7.0%)
COSX gradient               ....       5.502 sec  ( 56.0%)
XC gradient                 ....       3.146 sec  ( 32.0%)

Maximum memory used throughout the entire SCFGRAD-calculation: 44.8 MB
------------------------------------------------------------------------------
                         ORCA GEOMETRY RELAXATION STEP
------------------------------------------------------------------------------

Reading the OPT-File                    .... done
Getting information on internals        .... done
Copying old internal coords+grads       .... done
Making the new internal coordinates     .... (new redundants).... done
Validating the new internal coordinates .... (new redundants).... done
Calculating the B-matrix                .... done
Calculating the G,G- and P matrices     .... done
Transforming gradient to internals      .... done
Projecting the internal gradient        .... done
Number of atoms                         ....  12
Number of internal coordinates          ....  54
Current Energy                          ....  -232.085400693 Eh
Current gradient norm                   ....     0.036018901 Eh/bohr
Maximum allowed component of the step   ....  0.300
Current trust radius                    ....  0.300
Evaluating the initial hessian          ....  (Almloef) done
Projecting the Hessian                  .... done
Forming the augmented Hessian           .... done
Diagonalizing the augmented Hessian     .... done
Last element of RFO vector              ....  0.995579729
Lowest eigenvalues of augmented Hessian:
 -0.003225286  0.025015034  0.025015050  0.025015054  0.025015096
Length of the computed step             ....  0.094337193
The final length of the internal step   ....  0.094337193
Converting the step to cartesian space:
 Initial RMS(Int)=    0.0128376659
Transforming coordinates:
 Iter   0:  RMS(Cart)=    0.0218306398 RMS(Int)=    1.7101145737
 Iter   1:  RMS(Cart)=    0.0006104122 RMS(Int)=    0.0005216841
 Iter   2:  RMS(Cart)=    0.0000348279 RMS(Int)=    0.0000220241
 Iter   3:  RMS(Cart)=    0.0000021553 RMS(Int)=    0.0000018358
 Iter   4:  RMS(Cart)=    0.0000001229 RMS(Int)=    0.0000000780
 Iter   5:  RMS(Cart)=    0.0000000076 RMS(Int)=    0.0000000065
done
Storing new coordinates                 .... done

                                .--------------------.
          ----------------------|Geometry convergence|-------------------------
          Item                value                   Tolerance       Converged
          ---------------------------------------------------------------------
          RMS gradient        0.0046827000            0.0001000000      NO
          MAX gradient        0.0237461570            0.0003000000      NO
          RMS step            0.0128376659            0.0020000000      NO
          MAX step            0.0666022396            0.0040000000      NO
          ........................................................
          Max(Bonds)      0.0059      Max(Angles)    3.82
          Max(Dihed)        0.00      Max(Improp)    0.00
          ---------------------------------------------------------------------

The optimization has not yet converged - more geometry cycles are needed


    ---------------------------------------------------------------------------
                         Redundant Internal Coordinates
                            (Angstroem and degrees)

        Definition                    Value    dE/dq     Step     New-Value
    ----------------------------------------------------------------------------
     1. B(C   1,C   0)                1.4000 -0.003788  0.0034    1.4034   
     2. B(C   2,C   1)                1.4000  0.002476 -0.0021    1.3979   
     3. B(C   3,C   2)                1.4000  0.003657 -0.0032    1.3968   
     4. B(C   4,C   3)                1.4000  0.002057 -0.0019    1.3981   
     5. B(C   5,C   4)                1.4000  0.002598 -0.0024    1.3976   
     6. B(C   5,C   0)                1.4000  0.006701 -0.0059    1.3941   
     7. B(H   6,C   1)                1.0890  0.001475 -0.0021    1.0869   
     8. B(H   7,C   2)                1.0890  0.000956 -0.0014    1.0876   
     9. B(H   8,C   3)                1.0890  0.001235 -0.0018    1.0872   
    10. B(H   9,C   4)                1.0890  0.001480 -0.0021    1.0869   
    11. B(H  10,C   5)                1.0890  0.001020 -0.0015    1.0875   
    12. B(H  11,C   0)                1.0890  0.000830 -0.0012    1.0878   
    13. A(C   1,C   0,H  11)          109.47 -0.023746    3.82    113.29   
    14. A(C   5,C   0,H  11)          130.53  0.022354   -3.63    126.90   
    15. A(C   1,C   0,C   5)          120.00  0.001392   -0.18    119.82   
    16. A(C   0,C   1,C   2)          120.00 -0.001712    0.27    120.27   
    17. A(C   2,C   1,H   6)          120.00  0.000654   -0.10    119.90   
    18. A(C   0,C   1,H   6)          120.00  0.001058   -0.17    119.83   
    19. A(C   3,C   2,H   7)          120.00 -0.000425    0.04    120.04   
    20. A(C   1,C   2,H   7)          120.00 -0.001564    0.23    120.23   
    21. A(C   1,C   2,C   3)          120.00  0.001989   -0.27    119.73   
    22. A(C   2,C   3,C   4)          120.00  0.000046   -0.02    119.98   
    23. A(C   4,C   3,H   8)          120.00  0.000063   -0.00    120.00   
    24. A(C   2,C   3,H   8)          120.00 -0.000109    0.02    120.02   
    25. A(C   5,C   4,H   9)          120.00  0.001670   -0.23    119.77   
    26. A(C   3,C   4,H   9)          120.00  0.000609   -0.06    119.94   
    27. A(C   3,C   4,C   5)          120.00 -0.002279    0.29    120.29   
    28. A(C   0,C   5,H  10)          120.00 -0.000716    0.12    120.12   
    29. A(C   0,C   5,C   4)          120.00  0.000564   -0.09    119.91   
    30. A(C   4,C   5,H  10)          120.00  0.000153   -0.02    119.98   
    31. D(H   6,C   1,C   0,C   5)    180.00  0.000000   -0.00    180.00   
    32. D(H   6,C   1,C   0,H  11)      0.00  0.000000   -0.00     -0.00   
    33. D(C   2,C   1,C   0,H  11)    180.00  0.000000   -0.00    180.00   
    34. D(C   2,C   1,C   0,C   5)      0.00  0.000000   -0.00     -0.00   
    35. D(H   7,C   2,C   1,C   0)    180.00  0.000000   -0.00    180.00   
    36. D(C   3,C   2,C   1,C   0)      0.00  0.000000   -0.00     -0.00   
    37. D(C   3,C   2,C   1,H   6)    180.00  0.000000   -0.00    180.00   
    38. D(H   7,C   2,C   1,H   6)      0.00  0.000000   -0.00     -0.00   
    39. D(H   8,C   3,C   2,H   7)      0.00 -0.000000    0.00      0.00   
    40. D(H   8,C   3,C   2,C   1)    180.00 -0.000000    0.00    180.00   
    41. D(C   4,C   3,C   2,H   7)    180.00 -0.000000    0.00    180.00   
    42. D(C   4,C   3,C   2,C   1)      0.00 -0.000000    0.00      0.00   
    43. D(H   9,C   4,C   3,C   2)    180.00  0.000000   -0.00    180.00   
    44. D(C   5,C   4,C   3,H   8)    180.00  0.000000   -0.00    180.00   
    45. D(C   5,C   4,C   3,C   2)      0.00  0.000000   -0.00     -0.00   
    46. D(H   9,C   4,C   3,H   8)      0.00 -0.000000    0.00      0.00   
    47. D(H  10,C   5,C   4,H   9)      0.00 -0.000000    0.00      0.00   
    48. D(C   0,C   5,C   4,H   9)    180.00  0.000000   -0.00    180.00   
    49. D(C   0,C   5,C   4,C   3)      0.00  0.000000   -0.00     -0.00   
    50. D(H  10,C   5,C   0,H  11)      0.00  0.000000   -0.00     -0.00   
    51. D(H  10,C   5,C   0,C   1)    180.00  0.000000   -0.00    180.00   
    52. D(H  10,C   5,C   4,C   3)    180.00 -0.000000    0.00    180.00   
    53. D(C   4,C   5,C   0,H  11)    180.00 -0.000000    0.00    180.00   
    54. D(C   4,C   5,C   0,C   1)      0.00 -0.000000    0.00      0.00   
    ----------------------------------------------------------------------------

         *************************************************************
         *                GEOMETRY OPTIMIZATION CYCLE   2            *
         *************************************************************
---------------------------------
CARTESIAN COORDINATES (ANGSTROEM)
---------------------------------
  C     -0.002455   -0.000000    0.006020
  C      0.005353   -0.000000    1.409387
  C      1.216613    0.000000    2.107255
  C      2.422388   -0.000000    1.402147
  C      2.414169    0.000000    0.004047
  C      1.203261    0.000000   -0.693893
  H     -0.934445   -0.000000    1.955319
  H      1.221868    0.000000    3.194855
  H      3.367161   -0.000000    1.940131
  H      3.352791    0.000000   -0.543890
  H      1.202916    0.000000   -1.781413
  H     -1.004010   -0.000000   -0.418465

----------------------------
CARTESIAN COORDINATES (A.U.)
----------------------------
  NO LB      ZA    FRAG     MASS         X           Y           Z
   0 C     6.0000    0    12.011   -0.004639   -0.000000    0.011376
   1 C     6.0000    0    12.011    0.010116   -0.000000    2.663355
   2 C     6.0000    0    12.011    2.299066    0.000000    3.982135
   3 C     6.0000    0    12.011    4.577650   -0.000000    2.649675
   4 C     6.0000    0    12.011    4.562118    0.000000    0.007648
   5 C     6.0000    0    12.011    2.273833    0.000000   -1.311268
   6 H     1.0000    0     1.008   -1.765844   -0.000000    3.695018
   7 H     1.0000    0     1.008    2.308996    0.000000    6.037402
   8 H     1.0000    0     1.008    6.363011   -0.000000    3.666317
   9 H     1.0000    0     1.008    6.335858    0.000000   -1.027804
  10 H     1.0000    0     1.008    2.273181    0.000000   -3.366384
  11 H     1.0000    0     1.008   -1.897303   -0.000000   -0.790784

--------------------------------
INTERNAL COORDINATES (ANGSTROEM)
--------------------------------
 C      0   0   0     0.000000000000     0.00000000     0.00000000
 C      1   0   0     1.403388656928     0.00000000     0.00000000
 C      2   1   0     1.397916656848   120.26721646     0.00000000
 C      3   2   1     1.396806680233   119.73352793     0.00000000
 C      4   3   2     1.398124149054   119.98122509     0.00000000
 C      1   2   3     1.394140759186   119.81619163     0.00000000
 H      2   1   3     1.086859149455   119.83368624   180.00000085
 H      3   2   1     1.087613223721   120.22523163   179.99999669
 H      4   3   2     1.087208283847   120.02336381   180.00000209
 H      5   4   3     1.086852357330   119.93818582   179.99999852
 H      6   1   2     1.087520305474   120.11680671   179.99999791
 H      1   2   3     1.087795238939   113.28727452   179.99999879

---------------------------
INTERNAL COORDINATES (A.U.)
---------------------------
 C      0   0   0     0.000000000000     0.00000000     0.00000000
 C      1   0   0     2.652020221046     0.00000000     0.00000000
 C      2   1   0     2.641679639489   120.26721646     0.00000000
 C      3   2   1     2.639582087673   119.73352793     0.00000000
 C      4   3   2     2.642071742934   119.98122509     0.00000000
 C      1   2   3     2.634544226998   119.81619163     0.00000000
 H      2   1   3     2.053866138617   119.83368624   180.00000085
 H      3   2   1     2.055291132464   120.22523163   179.99999669
 H      4   3   2     2.054525907002   120.02336381   180.00000209
 H      5   4   3     2.053853303360   119.93818582   179.99999852
 H      6   1   2     2.055115542423   120.11680671   179.99999791
 H      1   2   3     2.055635091378   113.28727452   179.99999879

------------------------------------------------------------------------------
                   ___                                                        
                  /   \      - P O W E R E D   B Y -                         
                 /     \                                                     
                 |  |  |   _    _      __       _____    __    __             
                 |  |  |  | |  | |    /  \     |  _  \  |  |  /  |          
                  \  \/   | |  | |   /    \    | | | |  |  | /  /          
                 / \  \   | |__| |  /  /\  \   | |_| |  |  |/  /          
                |  |  |   |  __  | /  /__\  \  |    /   |      \           
                |  |  |   | |  | | |   __   |  |    \   |  |\   \          
                \     /   | |  | | |  |  |  |  | |\  \  |  | \   \       
                 \___/    |_|  |_| |__|  |__|  |_| \__\ |__|  \__/        
                                                                              
                      - O R C A' S   B I G   F R I E N D -                    
                                      &                                       
                       - I N T E G R A L  F E E D E R -                       
                                                                              
 v1 FN, 2020, v2 2021                                                         
------------------------------------------------------------------------------


Reading SHARK input file benzene_b3lyp.SHARKINP.tmp ... ok
----------------------
SHARK INTEGRAL PACKAGE
----------------------

Number of atoms                             ...     12
Number of basis functions                   ...     96
Number of shells                            ...     48
Maximum angular momentum                    ...      2
Integral batch strategy                     ... SHARK/LIBINT Hybrid
RI-J (if used) integral strategy            ... SPLIT-RIJ (Revised 2003 algorithm where possible)
Printlevel                                  ...      1
Contraction scheme used                     ... SEGMENTED contraction
Coulomb Range Separation                    ... NOT USED
Exchange Range Separation                   ... NOT USED
Finite Nucleus Model                        ... NOT USED
Auxiliary Coulomb fitting basis             ... AVAILABLE
   # of basis functions in Aux-J            ...    360
   # of shells in Aux-J                     ...    120
   Maximum angular momentum in Aux-J        ...      4
Auxiliary J/K fitting basis                 ... NOT available
Auxiliary Correlation fitting basis         ... NOT available
Auxiliary 'external' fitting basis          ... NOT available
Integral threshold                          ...     2.500000e-11
Primitive cut-off                           ...     2.500000e-12
Primitive pair pre-selection threshold      ...     2.500000e-12

Calculating pre-screening integrals         ... done (  0.1 sec) Dimension = 48
Organizing shell pair data                  ... done (  0.0 sec)
Shell pair information
Total number of shell pairs                 ...      1176
Shell pairs after pre-screening             ...      1158
Total number of primitive shell pairs       ...      6699
Primitive shell pairs kept                  ...      4823
          la=0 lb=0:    447 shell pairs
          la=1 lb=0:    360 shell pairs
          la=1 lb=1:     78 shell pairs
          la=2 lb=0:    180 shell pairs
          la=2 lb=1:     72 shell pairs
          la=2 lb=2:     21 shell pairs

Calculating one electron integrals          ... done (  0.0 sec)
Calculating RI/J V-Matrix + Cholesky decomp.... done (  0.0 sec)
Calculating Nuclear repulsion               ... done (  0.0 sec) ENN=    203.022042839861 Eh

SHARK setup successfully completed in   0.2 seconds

Maximum memory used throughout the entire GTOINT-calculation: 12.7 MB

Diagonalization of the overlap matrix:
Smallest eigenvalue                        ... 5.448e-04
Time for diagonalization                   ...    0.003 sec
Threshold for overlap eigenvalues          ... 1.000e-08
Number of eigenvalues below threshold      ... 0
Time for construction of square roots      ...    0.000 sec
Total time needed                          ...    0.003 sec

-------------------
DFT GRID GENERATION
-------------------

General Integration Accuracy     IntAcc      ... 4.388
Radial Grid Type                 RadialGrid  ... OptM3 with GC (2021)
Angular Grid (max. ang.)         AngularGrid ... 4 (Lebedev-302)
Angular grid pruning method      GridPruning ... 4 (adaptive)
Weight generation scheme         WeightScheme... Becke
Basis function cutoff            BFCut       ... 1.0000e-11
Integration weight cutoff        WCut        ... 1.0000e-14
Angular grids for H and He will be reduced by one unit
Partially contracted basis set               ... off
Rotationally invariant grid construction     ... off

Total number of grid points                  ...    55520
Total number of batches                      ...      873
Average number of points per batch           ...       63
Average number of grid points per atom       ...     4627
Time for grid setup =    0.609 sec

--------------------
COSX GRID GENERATION
--------------------

GRIDX 1
-------
General Integration Accuracy     IntAcc      ... 3.816
Radial Grid Type                 RadialGrid  ... OptM3 with GC (2021)
Angular Grid (max. ang.)         AngularGrid ... 1 (Lebedev-50)
Angular grid pruning method      GridPruning ... 4 (adaptive)
Weight generation scheme         WeightScheme... Becke
Basis function cutoff            BFCut       ... 1.0000e-11
Integration weight cutoff        WCut        ... 1.0000e-14
Angular grids for H and He will be reduced by one unit
Partially contracted basis set               ... on
Rotationally invariant grid construction     ... off

Total number of grid points                  ...     7123
Total number of batches                      ...      114
Average number of points per batch           ...       62
Average number of grid points per atom       ...      594
UseSFitting                                  ... on

GRIDX 2
-------
General Integration Accuracy     IntAcc      ... 4.020
Radial Grid Type                 RadialGrid  ... OptM3 with GC (2021)
Angular Grid (max. ang.)         AngularGrid ... 2 (Lebedev-110)
Angular grid pruning method      GridPruning ... 4 (adaptive)
Weight generation scheme         WeightScheme... Becke
Basis function cutoff            BFCut       ... 1.0000e-11
Integration weight cutoff        WCut        ... 1.0000e-14
Angular grids for H and He will be reduced by one unit
Partially contracted basis set               ... on
Rotationally invariant grid construction     ... off

Total number of grid points                  ...    15462
Total number of batches                      ...      246
Average number of points per batch           ...       62
Average number of grid points per atom       ...     1288
UseSFitting                                  ... on

GRIDX 3
-------
General Integration Accuracy     IntAcc      ... 4.338
Radial Grid Type                 RadialGrid  ... OptM3 with GC (2021)
Angular Grid (max. ang.)         AngularGrid ... 3 (Lebedev-194)
Angular grid pruning method      GridPruning ... 4 (adaptive)
Weight generation scheme         WeightScheme... Becke
Basis function cutoff            BFCut       ... 1.0000e-11
Integration weight cutoff        WCut        ... 1.0000e-14
Angular grids for H and He will be reduced by one unit
Partially contracted basis set               ... on
Rotationally invariant grid construction     ... off

Total number of grid points                  ...    34041
Total number of batches                      ...      537
Average number of points per batch           ...       63
Average number of grid points per atom       ...     2837
UseSFitting                                  ... on

Time for X-Grid setup             =    0.701 sec

--------------
SCF ITERATIONS
--------------
ITER       Energy         Delta-E        Max-DP      RMS-DP      [F,P]     Damp
               ***  Starting incremental Fock matrix formation  ***
                      *** Initiating the SOSCF procedure ***
                      *** Re-Reading the Fockian *** 
                      *** Removing any level shift *** 
ITER      Energy       Delta-E        Grad      Rot      Max-DP    RMS-DP
  0   -232.08772375 -232.0877237523  0.002011  0.002011  0.008500  0.000427
               *** Restarting incremental Fock matrix formation ***
  1   -232.08792373  -0.0001999741  0.000457  0.001036  0.001898  0.000091
  2   -232.08793519  -0.0000114653  0.000320  0.000703  0.000813  0.000044
  3   -232.08793653  -0.0000013375  0.000206  0.000318  0.000509  0.000023
  4   -232.08793770  -0.0000011716  0.000065  0.000188  0.000204  0.000012
  5   -232.08793767   0.0000000323  0.000072  0.000115  0.000142  0.000007
  6   -232.08793781  -0.0000001451  0.000014  0.000024  0.000047  0.000002
  7   -232.08793781   0.0000000039  0.000017  0.000014  0.000022  0.000001
                 **** Energy Check signals convergence ****
              ***Rediagonalizing the Fockian in SOSCF/NRSCF***

               *****************************************************
               *                     SUCCESS                       *
               *           SCF CONVERGED AFTER   8 CYCLES          *
               *****************************************************

Old exchange energy                            =     -6.648794611 Eh
New exchange energy                            =     -6.648809379 Eh
Exchange energy change after final integration =     -0.000014768 Eh
Total energy after final integration           =   -232.087952583 Eh
Final COS-X integration done in                =     4.669 sec
Total Energy       :         -232.08795258 Eh           -6315.43426 eV
  Last Energy change         ...   -5.9062e-09  Tolerance :   1.0000e-08
  Last MAX-Density change    ...    3.1086e-15  Tolerance :   1.0000e-07
             **** THE GBW FILE WAS UPDATED (benzene_b3lyp.gbw) ****
             **** DENSITY benzene_b3lyp.scfp WAS UPDATED ****
             **** ENERGY FILE WAS UPDATED (benzene_b3lyp.en.tmp) ****
             **** THE GBW FILE WAS UPDATED (benzene_b3lyp.gbw) ****
             **** DENSITY benzene_b3lyp.scfp WAS UPDATED ****
Total SCF time: 0 days 0 hours 0 min 29 sec 

Maximum memory used throughout the entire SCF-calculation: 57.0 MB

-------------------------   --------------------
FINAL SINGLE POINT ENERGY      -232.087952583388
-------------------------   --------------------

------------------------------------------------------------------------------
                         ORCA SCF GRADIENT CALCULATION
------------------------------------------------------------------------------

 ... reading COSX grid (gridx3)
Gradient of the Kohn-Sham DFT energy:
Kohn-Sham wavefunction type      ... RKS
Hartree-Fock exchange scaling    ...    0.200
Number of operators              ...    1
Number of atoms                  ...   12
Basis set dimensions             ...   96
Integral neglect threshold       ... 2.5e-11
Integral primitive cutoff        ... 2.5e-12
SHARK Integral package           ... ON

Nuc. rep. gradient       (SHARK) ... done (  0.0 sec)
HCore & Overlap gradient (SHARK) ... done (  0.1 sec)
RI-J gradient            (SHARK) ... done (  0.7 sec)
COSX-gradient                    ... done (  5.4 sec)
Exchange-correlation gradient    ... done

------------------
CARTESIAN GRADIENT
------------------

   1   C   :    0.008069998    0.000000003   -0.018734147
   2   C   :   -0.006619536    0.000000001    0.000470022
   3   C   :    0.001354478    0.000000006    0.000194662
   4   C   :   -0.000269917   -0.000000005    0.001129012
   5   C   :    0.000072159   -0.000000001   -0.001247843
   6   C   :    0.003475002    0.000000004    0.004752490
   7   H   :    0.000275033   -0.000000001    0.000154790
   8   H   :   -0.000020257   -0.000000001    0.000171130
   9   H   :   -0.000113819    0.000000002    0.000147235
  10   H   :   -0.000099131   -0.000000002    0.000189756
  11   H   :   -0.000293958   -0.000000005   -0.000027468
  12   H   :   -0.005785937   -0.000000002    0.012815666

Difference to translation invariance:
           :    0.0000441144    0.0000000000    0.0000153020

Difference to rotation invariance:
           :   -0.0000000260    0.0000233069   -0.0000000103

Norm of the cartesian gradient     ...    0.0264119624
RMS gradient                       ...    0.0044019937
MAX gradient                       ...    0.0187341475

-------
TIMINGS
-------

Total SCF gradient time            ...        9.632 sec

One electron gradient       ....       0.102 sec  (  1.1%)
RI-J Coulomb gradient       ....       0.676 sec  (  7.0%)
COSX gradient               ....       5.383 sec  ( 55.9%)
XC gradient                 ....       3.095 sec  ( 32.1%)

Maximum memory used throughout the entire SCFGRAD-calculation: 44.8 MB
------------------------------------------------------------------------------
                         ORCA GEOMETRY RELAXATION STEP
------------------------------------------------------------------------------

Reading the OPT-File                    .... done
Getting information on internals        .... done
Copying old internal coords+grads       .... done
Making the new internal coordinates     .... (new redundants).... done
Validating the new internal coordinates .... (new redundants).... done
Calculating the B-matrix                .... done
Calculating the G,G- and P matrices     .... done
Transforming gradient to internals      .... done
Projecting the internal gradient        .... done
Number of atoms                         ....  12
Number of internal coordinates          ....  54
Current Energy                          ....  -232.087952583 Eh
Current gradient norm                   ....     0.026411962 Eh/bohr
Maximum allowed component of the step   ....  0.300
Current trust radius                    ....  0.300
[...]
     17      -0.000000  -0.000000  -0.000000  -0.000000   0.000000  -0.268713
     18      -0.000000  -0.000000   0.000000  -0.000000   0.000000  -0.251140
     19       0.281222  -0.496789  -0.150611  -0.547500  -0.405512   0.000001
     20       0.000000  -0.000000   0.000000   0.000000  -0.000000   0.148958
     21       0.000000   0.000000   0.000000   0.000000   0.000000   0.000582
     22       0.571264  -0.005210   0.549502   0.142814   0.404387  -0.000001
     23      -0.000000   0.000000  -0.000000  -0.000000   0.000000   0.308044
     24      -0.000000   0.000000  -0.000000   0.000000  -0.000000   0.254515
     25       0.289808   0.492102  -0.398842   0.404845  -0.404011   0.000001
     26      -0.000000  -0.000000   0.000000  -0.000000  -0.000000   0.145164
     27      -0.000000   0.000000   0.000000  -0.000000   0.000000   0.267200
     28      -0.281071   0.496705  -0.150836  -0.548362   0.403901  -0.000001
     29      -0.000000   0.000000   0.000000  -0.000000  -0.000000  -0.155543
     30      -0.000000   0.000000   0.000000   0.000000  -0.000000  -0.004489
     31      -0.571145   0.004681   0.549804   0.143902  -0.403290   0.000000
     32      -0.000000  -0.000000  -0.000000  -0.000000   0.000000  -0.293646
     33       0.000000   0.000000  -0.000000   0.000000  -0.000000  -0.270487
     34      -0.289119  -0.492434  -0.399639   0.403773   0.404564  -0.000000
     35      -0.000000  -0.000000  -0.000000  -0.000000  -0.000000  -0.148201
                 18         19         20         21         22         23    
      0      -0.245443  -0.094956   0.057803   0.016398  -0.023042  -0.020469
      1       0.000000  -0.000000  -0.000000   0.000000  -0.000000  -0.000000
      2      -0.138141   0.023052   0.090546  -0.029165   0.044377   0.032041
      3       0.256914   0.078599   0.077961   0.016995   0.001865  -0.031868
      4      -0.000000   0.000000   0.000000   0.000000   0.000000  -0.000000
      5      -0.151717   0.043000  -0.083380   0.028818   0.008146  -0.053406
      6       0.002670   0.009813  -0.083174  -0.033349  -0.057919   0.024090
      7       0.000000   0.000000  -0.000000  -0.000000   0.000000   0.000000
      8       0.281329  -0.118329  -0.014775   0.000141  -0.000565  -0.002804
      9      -0.259720  -0.095663   0.057125   0.016312   0.022948   0.020476
     10      -0.000000  -0.000000  -0.000000  -0.000000  -0.000000   0.000000
     11      -0.146063   0.022674   0.090178  -0.029370  -0.044309  -0.032083
     12       0.242879   0.078247   0.077536   0.017056  -0.001779   0.031849
     13       0.000000  -0.000000   0.000000   0.000000   0.000000   0.000000
     14      -0.143371   0.043453  -0.082854   0.029200  -0.008324   0.053377
     15       0.002913   0.009473  -0.083293  -0.033572   0.057930  -0.024165
     16      -0.000000   0.000000  -0.000000  -0.000000   0.000000   0.000000
     17       0.297654  -0.117736  -0.014185   0.000294   0.000553   0.002969
     18       0.256132   0.297179  -0.005000   0.206440   0.035569  -0.290289
     19       0.000001  -0.000000  -0.000000  -0.000000  -0.000000   0.000000
     20      -0.149406   0.406532  -0.239789   0.349681   0.064862  -0.491151
     21       0.001946   0.069086  -0.540085  -0.405108  -0.530090   0.222635
     22      -0.000001  -0.000000   0.000000   0.000000   0.000000  -0.000000
     23       0.277987  -0.127630  -0.011173   0.003992   0.004394  -0.004723
     24      -0.258977  -0.280299  -0.073919   0.199899   0.222660   0.172272
     25       0.000001   0.000000   0.000000  -0.000000   0.000000   0.000000
     26      -0.143597   0.339248   0.336609  -0.354972  -0.398260  -0.301553
     27       0.240243   0.297412  -0.005767   0.208251  -0.034756   0.289309
     28      -0.000001  -0.000000  -0.000000  -0.000000  -0.000000  -0.000000
     29      -0.141354   0.407267  -0.239370   0.352302  -0.063705   0.488505
     30       0.001080   0.068679  -0.540659  -0.407123   0.529269  -0.219660
     31       0.000001  -0.000000   0.000000   0.000000  -0.000000   0.000000
     32       0.295808  -0.126917  -0.010959   0.003804  -0.003939   0.004676
     33      -0.242973  -0.279436  -0.073285   0.199548  -0.222689  -0.173220
     34      -0.000001   0.000000   0.000000   0.000000  -0.000000  -0.000000
     35      -0.135740   0.339363   0.337103  -0.353827   0.398099   0.303122
                 24         25         26         27         28         29    
      0      -0.143570   0.029569  -0.104195  -0.029146   0.206144  -0.022426
      1      -0.000000   0.000000  -0.000000   0.000000   0.000000  -0.000000
      2       0.253300  -0.052495   0.083655  -0.108306  -0.150985   0.254097
      3      -0.148148  -0.030628   0.103216  -0.036186  -0.167855  -0.128900
      4       0.000000  -0.000000   0.000000  -0.000000  -0.000000   0.000000
      5      -0.250108  -0.051773   0.090898   0.101179  -0.000682  -0.293348
      6       0.291263  -0.060291   0.006092   0.147208   0.317322   0.087209
      7       0.000000   0.000000  -0.000000   0.000000   0.000000   0.000000
      8      -0.002803   0.000570  -0.092813   0.002551  -0.041075   0.143142
      9      -0.142577  -0.029591  -0.104916  -0.029014  -0.205363   0.022505
     10      -0.000000   0.000000   0.000000   0.000000  -0.000000  -0.000000
     11       0.253996   0.052498   0.083627  -0.107770   0.150352  -0.254789
     12      -0.148009   0.030633   0.103910  -0.036475   0.166562   0.127757
     13       0.000000  -0.000000  -0.000000  -0.000000  -0.000000  -0.000000
     14      -0.250832   0.051863   0.091358   0.100502  -0.000397   0.293143
     15       0.291736   0.060320   0.004950   0.147525  -0.316759  -0.085671
     16      -0.000000  -0.000000   0.000000  -0.000000  -0.000000   0.000000
     17      -0.003169  -0.000647  -0.092846   0.002821   0.042097  -0.142619
     18       0.142707   0.205323  -0.197972  -0.213284  -0.082191   0.242311
     19       0.000000  -0.000000  -0.000000   0.000000   0.000000   0.000000
     20       0.242793   0.347897  -0.437827  -0.163040   0.176979   0.327129
     21      -0.287161   0.403785  -0.026430  -0.537489  -0.405336  -0.107718
     22       0.000000   0.000000  -0.000000  -0.000000  -0.000000  -0.000000
     23       0.003308  -0.004271  -0.112923   0.010623  -0.037721   0.161733
     24       0.141140   0.198363   0.169602  -0.225384   0.042935  -0.248546
     25      -0.000000  -0.000000   0.000000  -0.000000   0.000000   0.000000
     26      -0.249027  -0.351738  -0.425653   0.205329  -0.314351   0.201198
     27       0.145721  -0.205676  -0.198802  -0.212748   0.083074  -0.243776
     28       0.000000   0.000000   0.000000   0.000000   0.000000   0.000000
     29       0.245274  -0.347447  -0.438658  -0.161623  -0.173646  -0.325537
     30      -0.290501  -0.403511  -0.024264  -0.537889   0.404960   0.104869
     31       0.000000   0.000000  -0.000000   0.000000  -0.000000   0.000000
     32       0.002141   0.003703  -0.113032   0.010157   0.039975  -0.160800
     33       0.139819  -0.198431   0.169942  -0.226341  -0.044040   0.247205
     34       0.000000  -0.000000   0.000000  -0.000000  -0.000000   0.000000
     35      -0.249074   0.351663  -0.424641   0.206055   0.316986  -0.199250
                 30         31         32         33         34         35    
      0       0.029593  -0.019123   0.038170  -0.018800   0.040549  -0.032295
      1       0.000000  -0.000000   0.000000  -0.000000   0.000000  -0.000000
      2       0.016685  -0.008818   0.022490  -0.014073   0.021141  -0.018181
      3      -0.029625   0.041994  -0.003969  -0.044226   0.000964  -0.031591
      4      -0.000000   0.000000   0.000000   0.000000   0.000000   0.000000
      5       0.017488  -0.024940   0.000114   0.025856  -0.004482   0.018652
      6      -0.000337  -0.001307   0.001490   0.003117  -0.001419   0.000369
      7      -0.000000   0.000000   0.000000   0.000000   0.000000   0.000000
      8      -0.034110   0.027000   0.040897   0.028749   0.042481   0.036936
      9       0.029238   0.019937  -0.037801  -0.018049   0.040891   0.032579
     10       0.000000   0.000000  -0.000000  -0.000000   0.000000   0.000000
     11       0.016493   0.009289  -0.022287  -0.013662   0.021353   0.018406
     12      -0.028791  -0.042248   0.003862  -0.043930   0.001084   0.032301
     13       0.000000   0.000000  -0.000000   0.000000   0.000000  -0.000000
     14       0.017040   0.025158  -0.000103   0.025768  -0.004561  -0.019122
     15      -0.000318   0.001306  -0.001439   0.003067  -0.001465  -0.000368
     16       0.000000   0.000000   0.000000  -0.000000  -0.000000   0.000000
     17      -0.033508  -0.027767  -0.040482   0.027990   0.042893  -0.037491
     18       0.356035  -0.492808   0.036215   0.495011  -0.027662   0.345163
     19      -0.000000   0.000000   0.000000  -0.000000  -0.000000  -0.000000
     20      -0.210194   0.291125  -0.018725  -0.291897   0.021776  -0.203779
     21       0.004251  -0.001411  -0.006251  -0.007271  -0.002363  -0.004168
     22       0.000000  -0.000000  -0.000000  -0.000000  -0.000000  -0.000000
     23       0.410053  -0.316391  -0.479412  -0.322846  -0.476437  -0.403676
     24      -0.351651  -0.225046   0.447581   0.217238  -0.451839  -0.356380
     25      -0.000000  -0.000000   0.000000   0.000000  -0.000000  -0.000000
     26      -0.198319  -0.124580   0.253555   0.127357  -0.252398  -0.201010
     27       0.346191   0.496101  -0.035260   0.492144  -0.028970  -0.353204
     28      -0.000000  -0.000000   0.000000  -0.000000  -0.000000   0.000000
     29      -0.204883  -0.293779   0.018265  -0.290912   0.022623   0.209017
     30       0.003783   0.001195   0.005716  -0.006871  -0.001911   0.003871
     31      -0.000000  -0.000000  -0.000000   0.000000   0.000000  -0.000000
     32       0.402949   0.325444   0.474789  -0.314540  -0.481280   0.409972
     33      -0.355755   0.215306  -0.451725   0.225579  -0.447695   0.352867
     34      -0.000000   0.000000  -0.000000   0.000000  -0.000000   0.000000
     35      -0.200670   0.119111  -0.255967   0.132098  -0.250146   0.199013


-----------
IR SPECTRUM
-----------

 Mode   freq       eps      Int      T**2         TX        TY        TZ
       cm**-1   L/(mol*cm) km/mol    a.u.
----------------------------------------------------------------------------
  6:    414.82   0.000000    0.00  0.000000  ( 0.000000 -0.000018  0.000000)
  7:    415.14   0.000000    0.00  0.000000  ( 0.000000  0.000009 -0.000000)
  8:    621.27   0.000000    0.00  0.000000  (-0.000004 -0.000000 -0.000011)
  9:    621.46   0.000000    0.00  0.000000  ( 0.000013  0.000000  0.000002)
 10:    693.67   0.015161   76.62  0.006820  ( 0.000000 -0.082585  0.000000)
 11:    717.78   0.000000    0.00  0.000000  (-0.000000 -0.000015 -0.000000)
 12:    864.52   0.000000    0.00  0.000000  (-0.000000  0.000027 -0.000000)
 13:    864.65   0.000000    0.00  0.000000  ( 0.000000 -0.000026 -0.000000)
 14:    969.25   0.000000    0.00  0.000000  ( 0.000000 -0.000045 -0.000000)
 15:    969.41   0.000000    0.00  0.000000  (-0.000000 -0.000023  0.000000)
 16:   1011.16   0.000000    0.00  0.000000  (-0.000000  0.000002 -0.000000)
 17:   1019.53   0.000000    0.00  0.000000  (-0.000023  0.000000  0.000029)
 18:   1019.57   0.000000    0.00  0.000000  (-0.000016 -0.000000 -0.000002)
 19:   1068.01   0.000639    3.23  0.000187  ( 0.001875 -0.000000  0.013535)
 20:   1068.44   0.000635    3.21  0.000186  (-0.013495 -0.000000  0.001872)
 21:   1184.67   0.000000    0.00  0.000000  (-0.000036  0.000000 -0.000001)
 22:   1206.73   0.000000    0.00  0.000000  (-0.000006 -0.000000  0.000041)
 23:   1206.97   0.000000    0.00  0.000000  ( 0.000033 -0.000000 -0.000037)
 24:   1354.65   0.000000    0.00  0.000000  (-0.000078 -0.000000 -0.000023)
 25:   1387.24   0.000000    0.00  0.000000  (-0.000005  0.000000 -0.000004)
 26:   1530.40   0.001309    6.61  0.000267  (-0.000913 -0.000000 -0.016309)
 27:   1530.57   0.001304    6.59  0.000266  (-0.016278 -0.000000  0.000892)
 28:   1653.72   0.000000    0.00  0.000000  ( 0.000001  0.000000  0.000040)
 29:   1654.28   0.000000    0.00  0.000000  (-0.000030 -0.000000  0.000018)
 30:   3173.60   0.000000    0.00  0.000000  (-0.000062  0.000000 -0.000046)
 31:   3183.10   0.000000    0.00  0.000000  ( 0.000113  0.000000 -0.000027)
 32:   3183.17   0.000000    0.00  0.000000  ( 0.000063  0.000000  0.000137)
 33:   3198.99   0.010224   51.67  0.000997  (-0.026127 -0.000000  0.017739)
 34:   3199.05   0.010226   51.68  0.000998  ( 0.017717 -0.000000  0.026147)
 35:   3209.64   0.000001    0.00  0.000000  ( 0.000211 -0.000000 -0.000166)

* The epsilon (eps) is given for a Dirac delta lineshape.
** The dipole moment derivative (T) already includes vibrational overlap.

The first frequency considered to be a vibration is 6
The total number of vibrations considered is 30


--------------------------
THERMOCHEMISTRY AT 298.15K
--------------------------

Temperature         ... 298.15 K
Pressure            ... 1.00 atm
Total Mass          ... 78.11 AMU

Throughout the following assumptions are being made:
  (1) The electronic state is orbitally nondegenerate
  (2) There are no thermally accessible electronically excited states
  (3) Hindered rotations indicated by low frequency modes are not
      treated as such but are treated as vibrations and this may
      cause some error
  (4) All equations used are the standard statistical mechanics
      equations for an ideal gas
  (5) All vibrations are strictly harmonic

freq.     414.82  E(vib)   ...       0.19 
freq.     415.14  E(vib)   ...       0.19 
freq.     621.27  E(vib)   ...       0.09 
freq.     621.46  E(vib)   ...       0.09 
freq.     693.67  E(vib)   ...       0.07 
freq.     717.78  E(vib)   ...       0.07 
freq.     864.52  E(vib)   ...       0.04 
freq.     864.65  E(vib)   ...       0.04 
freq.     969.25  E(vib)   ...       0.03 
freq.     969.41  E(vib)   ...       0.03 
freq.    1011.16  E(vib)   ...       0.02 
freq.    1019.53  E(vib)   ...       0.02 
freq.    1019.57  E(vib)   ...       0.02 
freq.    1068.01  E(vib)   ...       0.02 
freq.    1068.44  E(vib)   ...       0.02 
freq.    1184.67  E(vib)   ...       0.01 
freq.    1206.73  E(vib)   ...       0.01 
freq.    1206.97  E(vib)   ...       0.01 
freq.    1354.65  E(vib)   ...       0.01 
freq.    1387.24  E(vib)   ...       0.00 
freq.    1530.40  E(vib)   ...       0.00 
freq.    1530.57  E(vib)   ...       0.00 
freq.    1653.72  E(vib)   ...       0.00 
freq.    1654.28  E(vib)   ...       0.00 
freq.    3173.60  E(vib)   ...       0.00 
freq.    3183.10  E(vib)   ...       0.00 
freq.    3183.17  E(vib)   ...       0.00 
freq.    3198.99  E(vib)   ...       0.00 
freq.    3199.05  E(vib)   ...       0.00 
freq.    3209.64  E(vib)   ...       0.00 

------------
INNER ENERGY
------------

The inner energy is: U= E(el) + E(ZPE) + E(vib) + E(rot) + E(trans)
    E(el)   - is the total energy from the electronic structure calculation
              = E(kin-el) + E(nuc-el) + E(el-el) + E(nuc-nuc)
    E(ZPE)  - the the zero temperature vibrational energy from the frequency calculation
    E(vib)  - the the finite temperature correction to E(ZPE) due to population
              of excited vibrational states
    E(rot)  - is the rotational thermal energy
    E(trans)- is the translational thermal energy

Summary of contributions to the inner energy U:
Electronic energy                ...   -232.08967383 Eh
Zero point energy                ...      0.10068470 Eh      63.18 kcal/mol
Thermal vibrational correction   ...      0.00155578 Eh       0.98 kcal/mol
Thermal rotational correction    ...      0.00141627 Eh       0.89 kcal/mol
Thermal translational correction ...      0.00141627 Eh       0.89 kcal/mol
-----------------------------------------------------------------------
Total thermal energy                   -231.98460081 Eh


Summary of corrections to the electronic energy:
(perhaps to be used in another calculation)
Total thermal correction                  0.00438833 Eh       2.75 kcal/mol
Non-thermal (ZPE) correction              0.10068470 Eh      63.18 kcal/mol
-----------------------------------------------------------------------
Total correction                          0.10507302 Eh      65.93 kcal/mol


--------
ENTHALPY
--------

The enthalpy is H = U + kB*T
                kB is Boltzmann's constant
Total free energy                 ...   -231.98460081 Eh 
Thermal Enthalpy correction       ...      0.00094421 Eh       0.59 kcal/mol
-----------------------------------------------------------------------
Total Enthalpy                    ...   -231.98365660 Eh


Note: Rotational entropy computed according to Herzberg 
Infrared and Raman Spectra, Chapter V,1, Van Nostrand Reinhold, 1945 
Point Group:  Cs, Symmetry Number:   1  
Rotational constants in cm-1:     0.189399     0.189330     0.094682 

Vibrational entropy computed according to the QRRHO of S. Grimme
Chem.Eur.J. 2012 18 9955


-------
ENTROPY
-------

The entropy contributions are T*S = T*(S(el)+S(vib)+S(rot)+S(trans))
     S(el)   - electronic entropy
     S(vib)  - vibrational entropy
     S(rot)  - rotational entropy
     S(trans)- translational entropy
The entropies will be listed as multiplied by the temperature to get
units of energy

Electronic entropy                ...      0.00000000 Eh      0.00 kcal/mol
Vibrational entropy               ...      0.00208466 Eh      1.31 kcal/mol
Rotational entropy                ...      0.01219483 Eh      7.65 kcal/mol
Translational entropy             ...      0.01852142 Eh     11.62 kcal/mol
-----------------------------------------------------------------------
Final entropy term                ...      0.03280091 Eh     20.58 kcal/mol

In case the symmetry of your molecule has not been determined correctly
or in case you have a reason to use a different symmetry number we print 
out the resulting rotational entropy values for sn=1,12 :
 --------------------------------------------------------
|  sn= 1 | S(rot)=       0.01219483 Eh      7.65 kcal/mol|
|  sn= 2 | S(rot)=       0.01154037 Eh      7.24 kcal/mol|
|  sn= 3 | S(rot)=       0.01115754 Eh      7.00 kcal/mol|
|  sn= 4 | S(rot)=       0.01088591 Eh      6.83 kcal/mol|
|  sn= 5 | S(rot)=       0.01067523 Eh      6.70 kcal/mol|
|  sn= 6 | S(rot)=       0.01050308 Eh      6.59 kcal/mol|
|  sn= 7 | S(rot)=       0.01035754 Eh      6.50 kcal/mol|
|  sn= 8 | S(rot)=       0.01023146 Eh      6.42 kcal/mol|
|  sn= 9 | S(rot)=       0.01012025 Eh      6.35 kcal/mol|
|  sn=10 | S(rot)=       0.01002077 Eh      6.29 kcal/mol|
|  sn=11 | S(rot)=       0.00993078 Eh      6.23 kcal/mol|
|  sn=12 | S(rot)=       0.00984862 Eh      6.18 kcal/mol|
 --------------------------------------------------------


-------------------
GIBBS FREE ENERGY
-------------------

The Gibbs free energy is G = H - T*S

Total enthalpy                    ...   -231.98365660 Eh 
Total entropy correction          ...     -0.03280091 Eh    -20.58 kcal/mol
-----------------------------------------------------------------------
Final Gibbs free energy         ...   -232.01645751 Eh

For completeness - the Gibbs free energy minus the electronic energy
G-E(el)                           ...      0.07321632 Eh     45.94 kcal/mol


Timings for individual modules:

Sum of individual times         ...      377.519 sec (=   6.292 min)
GTO integral calculation        ...        1.399 sec (=   0.023 min)   0.4 %
SCF iterations                  ...      170.230 sec (=   2.837 min)  45.1 %
SCF Gradient evaluation         ...       48.871 sec (=   0.815 min)  12.9 %
Geometry relaxation             ...        0.127 sec (=   0.002 min)   0.0 %
Analytical frequency calculation...      156.892 sec (=   2.615 min)  41.6 %
                             ****ORCA TERMINATED NORMALLY****
TOTAL RUN TIME: 0 days 0 hours 6 minutes 17 seconds 796 msec
