
                                 *****************
                                 * O   R   C   A *
                                 *****************

                                            #,                                       
                                            ###                                      
                                            ####                                     
                                            #####                                    
                                            ######                                   
                                           ########,                                 
                                     ,,################,,,,,                         
                               ,,#################################,,                 
                          ,,##########################################,,             
                       ,#########################################, ''#####,          
                    ,#############################################,,   '####,        
                  ,##################################################,,,,####,       
                ,###########''''           ''''###############################       
              ,#####''   ,,,,##########,,,,          '''####'''          '####       
            ,##' ,,,,###########################,,,                        '##       
           ' ,,###''''                  '''############,,,                           
         ,,##''                                '''############,,,,        ,,,,,,###''
      ,#''                                            '''#######################'''  
     '                                                          ''''####''''         
             ,#######,   #######,   ,#######,      ##                                
            ,#'     '#,  ##    ##  ,#'     '#,    #''#        ######   ,####,        
            ##       ##  ##   ,#'  ##            #'  '#       #        #'  '#        
            ##       ##  #######   ##           ,######,      #####,   #    #        
            '#,     ,#'  ##    ##  '#,     ,#' ,#      #,         ##   #,  ,#        
             '#######'   ##     ##  '#######'  #'      '#     #####' # '####'        



                  #######################################################
                  #                        -***-                        #
                  #          Department of theory and spectroscopy      #
                  #    Directorship and core code : Frank Neese         #
                  #        Max Planck Institute fuer Kohlenforschung    #
                  #                Kaiser Wilhelm Platz 1               #
                  #                 D-45470 Muelheim/Ruhr               #
                  #                      Germany                        #
                  #                                                     #
                  #                  All rights reserved                #
                  #                        -***-                        #
                  #######################################################


                         Program Version 5.0.3 -  RELEASE  -


 With contributions from (in alphabetic order):
   Daniel Aravena         : Magnetic Suceptibility
   Michael Atanasov       : Ab Initio Ligand Field Theory (pilot matlab implementation)
   Alexander A. Auer      : GIAO ZORA, VPT2 properties, NMR spectrum
   Ute Becker             : Parallelization
   Giovanni Bistoni       : ED, misc. LED, open-shell LED, HFLD
   Martin Brehm           : Molecular dynamics
   Dmytro Bykov           : SCF Hessian
   Vijay G. Chilkuri      : MRCI spin determinant printing, contributions to CSF-ICE
   Dipayan Datta          : RHF DLPNO-CCSD density
   Achintya Kumar Dutta   : EOM-CC, STEOM-CC
   Dmitry Ganyushin       : Spin-Orbit,Spin-Spin,Magnetic field MRCI
   Miquel Garcia          : C-PCM and meta-GGA Hessian, CC/C-PCM, Gaussian charge scheme
   Yang Guo               : DLPNO-NEVPT2, F12-NEVPT2, CIM, IAO-localization
   Andreas Hansen         : Spin unrestricted coupled pair/coupled cluster methods
   Benjamin Helmich-Paris : MC-RPA, TRAH-SCF, COSX integrals
   Lee Huntington         : MR-EOM, pCC
   Robert Izsak           : Overlap fitted RIJCOSX, COSX-SCS-MP3, EOM
   Marcus Kettner         : VPT2
   Christian Kollmar      : KDIIS, OOCD, Brueckner-CCSD(T), CCSD density, CASPT2, CASPT2-K
   Simone Kossmann        : Meta GGA functionals, TD-DFT gradient, OOMP2, MP2 Hessian
   Martin Krupicka        : Initial AUTO-CI
   Lucas Lang             : DCDCAS
   Marvin Lechner         : AUTO-CI (C++ implementation), FIC-MRCC
   Dagmar Lenk            : GEPOL surface, SMD
   Dimitrios Liakos       : Extrapolation schemes; Compound Job, initial MDCI parallelization
   Dimitrios Manganas     : Further ROCIS development; embedding schemes
   Dimitrios Pantazis     : SARC Basis sets
   Anastasios Papadopoulos: AUTO-CI, single reference methods and gradients
   Taras Petrenko         : DFT Hessian,TD-DFT gradient, ASA, ECA, R-Raman, ABS, FL, XAS/XES, NRVS
   Peter Pinski           : DLPNO-MP2, DLPNO-MP2 Gradient
   Christoph Reimann      : Effective Core Potentials
   Marius Retegan         : Local ZFS, SOC
   Christoph Riplinger    : Optimizer, TS searches, QM/MM, DLPNO-CCSD(T), (RO)-DLPNO pert. Triples
   Tobias Risthaus        : Range-separated hybrids, TD-DFT gradient, RPA, STAB
   Michael Roemelt        : Original ROCIS implementation
   Masaaki Saitow         : Open-shell DLPNO-CCSD energy and density
   Barbara Sandhoefer     : DKH picture change effects
   Avijit Sen             : IP-ROCIS
   Kantharuban Sivalingam : CASSCF convergence, NEVPT2, FIC-MRCI
   Bernardo de Souza      : ESD, SOC TD-DFT
   Georgi Stoychev        : AutoAux, RI-MP2 NMR, DLPNO-MP2 response
   Willem Van den Heuvel  : Paramagnetic NMR
   Boris Wezisla          : Elementary symmetry handling
   Frank Wennmohs         : Technical directorship


 We gratefully acknowledge several colleagues who have allowed us to
 interface, adapt or use parts of their codes:
   Stefan Grimme, W. Hujo, H. Kruse, P. Pracht,  : VdW corrections, initial TS optimization,
                  C. Bannwarth, S. Ehlert          DFT functionals, gCP, sTDA/sTD-DF
   Ed Valeev, F. Pavosevic, A. Kumar             : LibInt (2-el integral package), F12 methods
   Garnet Chan, S. Sharma, J. Yang, R. Olivares  : DMRG
   Ulf Ekstrom                                   : XCFun DFT Library
   Mihaly Kallay                                 : mrcc  (arbitrary order and MRCC methods)
   Jiri Pittner, Ondrej Demel                    : Mk-CCSD
   Frank Weinhold                                : gennbo (NPA and NBO analysis)
   Christopher J. Cramer and Donald G. Truhlar   : smd solvation model
   Lars Goerigk                                  : TD-DFT with DH, B97 family of functionals
   V. Asgeirsson, H. Jonsson                     : NEB implementation
   FAccTs GmbH                                   : IRC, NEB, NEB-TS, DLPNO-Multilevel, CI-OPT
                                                   MM, QMMM, 2- and 3-layer-ONIOM, Crystal-QMMM,
                                                   LR-CPCM, SF, NACMEs, symmetry and pop. for TD-DFT,
                                                   nearIR, NL-DFT gradient (VV10), updates on ESD,
                                                   ML-optimized integration grids
   S Lehtola, MJT Oliveira, MAL Marques          : LibXC Library
   Liviu Ungur et al                             : ANISO software


 Your calculation uses the libint2 library for the computation of 2-el integrals
 For citations please refer to: http://libint.valeyev.net

 Your ORCA version has been built with support for libXC version: 5.1.0
 For citations please refer to: https://tddft.org/programs/libxc/

 This ORCA versions uses:
   CBLAS   interface :  Fast vector & matrix operations
   LAPACKE interface :  Fast linear algebra routines
   SCALAPACK package :  Parallel linear algebra routines
   Shared memory     :  Shared parallel matrices
   BLAS/LAPACK       :  OpenBLAS 0.3.15  USE64BITINT DYNAMIC_ARCH NO_AFFINITY Haswell SINGLE_THREADED
        Core in use  :  Haswell
   Copyright (c) 2011-2014, The OpenBLAS Project


================================================================================

----- Orbital basis set information -----
Your calculation utilizes the basis: 6-31G*
   H-He, Li-Ne : W. J. Hehre, R. Ditchfield and J.A. Pople, J. Chem. Phys. 56, 2257 (1972).
                 Note: He and Ne are unpublished basis sets taken from the Gaussian program.
                 Note: Li and B from J. D. Dill and J. A. Pople, J. Chem. Phys. 62, 2921 (1975).
   Na - Ar     : M. M. Francl, W. J. Pietro, W. J. Hehre, J. S. Binkley, M. S. Gordon, 
                 D. J. DeFrees and J. A. Pople, J. Chem. Phys. 77, 3654 (1982).
   K - Zn      : V. A. Rassolov, J. A. Pople, M. A. Ratner, and T. L. Windus, J. Chem. Phys. 109, 1223 (1998).

================================================================================
                                        WARNINGS
                       Please study these warnings very carefully!
================================================================================


WARNING: Geometry Optimization
  ===> : Switching off AutoStart
         For restart on a previous wavefunction, please use MOREAD

WARNING: Post HF methods need fully converged wavefunctions
  ===> : Setting SCFConvForced true
         You can overwrite this default with %scf ConvForced false 


INFO   : the flag for use of the SHARK integral package has been found!

================================================================================
                                       INPUT FILE
================================================================================
NAME = benzene_mp2
|  1> ! MP2 6-31g* OPT ANFREQ NoFrozenCore
|  2> 
|  3> *xyz 0 1 
|  4> 
|  5>  C     0.000000     0.000000     0.000000
|  6>  C     0.000000     0.000000     1.400000
|  7>  C     1.212436     0.000000     2.100000
|  8>  C     2.424871     0.000000     1.400000
|  9>  C     2.424871     0.000000     0.000000
| 10>  C     1.212436     0.000000    -0.700000
| 11>  H    -0.943102     0.000000     1.944500
| 12>  H     1.212436     0.000000     3.189000
| 13>  H     3.367973     0.000000     1.944500
| 14>  H     3.367973     0.000000    -0.544500
| 15>  H     1.212436     0.000000    -1.789000
| 16>  H    -1.026719     0.000000    -0.363000
| 17> *
| 18> 
| 19>                          ****END OF INPUT****
================================================================================

                       *****************************
                       * Geometry Optimization Run *
                       *****************************

Geometry optimization settings:
Update method            Update   .... BFGS
Choice of coordinates    CoordSys .... Z-matrix Internals
Initial Hessian          InHess   .... Almoef's Model

Convergence Tolerances:
Energy Change            TolE     ....  5.0000e-06 Eh
Max. Gradient            TolMAXG  ....  3.0000e-04 Eh/bohr
RMS Gradient             TolRMSG  ....  1.0000e-04 Eh/bohr
Max. Displacement        TolMAXD  ....  4.0000e-03 bohr
RMS Displacement         TolRMSD  ....  2.0000e-03 bohr
Strict Convergence                ....  False
------------------------------------------------------------------------------
                        ORCA OPTIMIZATION COORDINATE SETUP
------------------------------------------------------------------------------

The optimization will be done in new redundant internal coordinates
Making redundant internal coordinates   ...  (new redundants) done
Evaluating the initial hessian          ...  (Almloef) done
Evaluating the coordinates              ...  done
Calculating the B-matrix                .... done
Calculating the G-matrix                .... done
Diagonalizing the G-matrix              .... done
The first mode is                       ....   24
The number of degrees of freedom        ....   30

    -----------------------------------------------------------------
                    Redundant Internal Coordinates


    -----------------------------------------------------------------
         Definition                    Initial Value    Approx d2E/dq
    -----------------------------------------------------------------
      1. B(C   1,C   0)                  1.4000         0.602260   
      2. B(C   2,C   1)                  1.4000         0.602259   
      3. B(C   3,C   2)                  1.4000         0.602261   
      4. B(C   4,C   3)                  1.4000         0.602260   
      5. B(C   5,C   4)                  1.4000         0.602261   
      6. B(C   5,C   0)                  1.4000         0.602259   
      7. B(H   6,C   1)                  1.0890         0.361425   
      8. B(H   7,C   2)                  1.0890         0.361425   
      9. B(H   8,C   3)                  1.0890         0.361425   
     10. B(H   9,C   4)                  1.0890         0.361425   
     11. B(H  10,C   5)                  1.0890         0.361425   
     12. B(H  11,C   0)                  1.0890         0.361425   
     13. A(C   1,C   0,H  11)          109.4712         0.351399   
     14. A(C   5,C   0,H  11)          130.5288         0.351399   
     15. A(C   1,C   0,C   5)          120.0000         0.429561   
     16. A(C   0,C   1,C   2)          120.0000         0.429561   
     17. A(C   2,C   1,H   6)          120.0000         0.351399   
     18. A(C   0,C   1,H   6)          120.0000         0.351399   
     19. A(C   3,C   2,H   7)          120.0000         0.351399   
     20. A(C   1,C   2,H   7)          120.0000         0.351399   
     21. A(C   1,C   2,C   3)          120.0000         0.429561   
     22. A(C   2,C   3,C   4)          120.0000         0.429561   
     23. A(C   4,C   3,H   8)          120.0000         0.351399   
     24. A(C   2,C   3,H   8)          120.0000         0.351399   
     25. A(C   5,C   4,H   9)          120.0000         0.351399   
     26. A(C   3,C   4,H   9)          120.0000         0.351399   
     27. A(C   3,C   4,C   5)          120.0000         0.429561   
     28. A(C   0,C   5,H  10)          120.0000         0.351399   
     29. A(C   0,C   5,C   4)          120.0000         0.429561   
     30. A(C   4,C   5,H  10)          120.0000         0.351399   
     31. D(H   6,C   1,C   0,C   5)    180.0000         0.025015   
     32. D(H   6,C   1,C   0,H  11)      0.0000         0.025015   
     33. D(C   2,C   1,C   0,H  11)    180.0000         0.025015   
     34. D(C   2,C   1,C   0,C   5)      0.0000         0.025015   
     35. D(H   7,C   2,C   1,C   0)    180.0000         0.025015   
     36. D(C   3,C   2,C   1,C   0)      0.0000         0.025015   
     37. D(C   3,C   2,C   1,H   6)    180.0000         0.025015   
     38. D(H   7,C   2,C   1,H   6)      0.0000         0.025015   
     39. D(H   8,C   3,C   2,H   7)      0.0000         0.025015   
     40. D(H   8,C   3,C   2,C   1)    180.0000         0.025015   
     41. D(C   4,C   3,C   2,H   7)    180.0000         0.025015   
     42. D(C   4,C   3,C   2,C   1)      0.0000         0.025015   
     43. D(H   9,C   4,C   3,C   2)    180.0000         0.025015   
     44. D(C   5,C   4,C   3,H   8)    180.0000         0.025015   
     45. D(C   5,C   4,C   3,C   2)      0.0000         0.025015   
     46. D(H   9,C   4,C   3,H   8)      0.0000         0.025015   
     47. D(H  10,C   5,C   4,H   9)      0.0000         0.025015   
     48. D(C   0,C   5,C   4,H   9)    180.0000         0.025015   
     49. D(C   0,C   5,C   4,C   3)      0.0000         0.025015   
     50. D(H  10,C   5,C   0,H  11)      0.0000         0.025015   
     51. D(H  10,C   5,C   0,C   1)    180.0000         0.025015   
     52. D(H  10,C   5,C   4,C   3)    180.0000         0.025015   
     53. D(C   4,C   5,C   0,H  11)    180.0000         0.025015   
     54. D(C   4,C   5,C   0,C   1)      0.0000         0.025015   
    -----------------------------------------------------------------

Number of atoms                         .... 12
Number of degrees of freedom            .... 54

         *************************************************************
         *                GEOMETRY OPTIMIZATION CYCLE   1            *
         *************************************************************
---------------------------------
CARTESIAN COORDINATES (ANGSTROEM)
---------------------------------
  C      0.000000    0.000000    0.000000
  C      0.000000    0.000000    1.400000
  C      1.212436    0.000000    2.100000
  C      2.424871    0.000000    1.400000
  C      2.424871    0.000000    0.000000
  C      1.212436    0.000000   -0.700000
  H     -0.943102    0.000000    1.944500
  H      1.212436    0.000000    3.189000
  H      3.367973    0.000000    1.944500
  H      3.367973    0.000000   -0.544500
  H      1.212436    0.000000   -1.789000
  H     -1.026719    0.000000   -0.363000

----------------------------
CARTESIAN COORDINATES (A.U.)
----------------------------
  NO LB      ZA    FRAG     MASS         X           Y           Z
   0 C     6.0000    0    12.011    0.000000    0.000000    0.000000
   1 C     6.0000    0    12.011    0.000000    0.000000    2.645617
   2 C     6.0000    0    12.011    2.291172    0.000000    3.968425
   3 C     6.0000    0    12.011    4.582342    0.000000    2.645617
   4 C     6.0000    0    12.011    4.582342    0.000000    0.000000
   5 C     6.0000    0    12.011    2.291172    0.000000   -1.322808
   6 H     1.0000    0     1.008   -1.782204    0.000000    3.674572
   7 H     1.0000    0     1.008    2.291172    0.000000    6.026337
   8 H     1.0000    0     1.008    6.364547    0.000000    3.674572
   9 H     1.0000    0     1.008    6.364547    0.000000   -1.028956
  10 H     1.0000    0     1.008    2.291172    0.000000   -3.380720
  11 H     1.0000    0     1.008   -1.940218    0.000000   -0.685971

--------------------------------
INTERNAL COORDINATES (ANGSTROEM)
--------------------------------
 C      0   0   0     0.000000000000     0.00000000     0.00000000
 C      1   0   0     1.400000000000     0.00000000     0.00000000
 C      2   1   0     1.400000376463   119.99999110     0.00000000
 C      3   2   1     1.399999510437   119.99999733     0.00000000
 C      4   3   2     1.400000000000   120.00001157     0.00000000
 C      5   4   3     1.399999510437   120.00001157     0.00000000
 H      2   1   3     1.089000290360   119.99999118   180.00000085
 H      3   2   1     1.089000000000   119.99999110   180.00000000
 H      4   3   2     1.089000290360   119.99999725   180.00000085
 H      5   4   3     1.089000290360   119.99999118   180.00000085
 H      6   5   4     1.089000000000   120.00001157   180.00000000
 H      1   2   3     1.088999956364   109.47122145   180.00000085

---------------------------
INTERNAL COORDINATES (A.U.)
---------------------------
 C      0   0   0     0.000000000000     0.00000000     0.00000000
 C      1   0   0     2.645616587490     0.00000000     0.00000000
 C      2   1   0     2.645617298901   119.99999110     0.00000000
 C      3   2   1     2.645615662351   119.99999733     0.00000000
 C      4   3   2     2.645616587490   120.00001157     0.00000000
 C      5   4   3     2.645615662351   120.00001157     0.00000000
 H      2   1   3     2.057912308541   119.99999118   180.00000085
 H      3   2   1     2.057911759840   119.99999110   180.00000000
 H      4   3   2     2.057912308541   119.99999725   180.00000085
 H      5   4   3     2.057912308541   119.99999118   180.00000085
 H      6   5   4     2.057911759840   120.00001157   180.00000000
 H      1   2   3     2.057911677380   109.47122145   180.00000085

---------------------
BASIS SET INFORMATION
---------------------
There are 2 groups of distinct atoms

 Group   1 Type C   : 10s4p1d contracted to 3s2p1d pattern {631/31/1}
 Group   2 Type H   : 4s contracted to 2s pattern {31}

Atom   0C    basis set group =>   1
Atom   1C    basis set group =>   1
Atom   2C    basis set group =>   1
Atom   3C    basis set group =>   1
Atom   4C    basis set group =>   1
Atom   5C    basis set group =>   1
Atom   6H    basis set group =>   2
Atom   7H    basis set group =>   2
Atom   8H    basis set group =>   2
Atom   9H    basis set group =>   2
Atom  10H    basis set group =>   2
Atom  11H    basis set group =>   2
------------------------------------------------------------------------------
                           ORCA GTO INTEGRAL CALCULATION
------------------------------------------------------------------------------
------------------------------------------------------------------------------
                   ___                                                        
                  /   \      - P O W E R E D   B Y -                         
                 /     \                                                     
                 |  |  |   _    _      __       _____    __    __             
                 |  |  |  | |  | |    /  \     |  _  \  |  |  /  |          
                  \  \/   | |  | |   /    \    | | | |  |  | /  /          
                 / \  \   | |__| |  /  /\  \   | |_| |  |  |/  /          
                |  |  |   |  __  | /  /__\  \  |    /   |      \           
                |  |  |   | |  | | |   __   |  |    \   |  |\   \          
                \     /   | |  | | |  |  |  |  | |\  \  |  | \   \       
                 \___/    |_|  |_| |__|  |__|  |_| \__\ |__|  \__/        
                                                                              
                      - O R C A' S   B I G   F R I E N D -                    
                                      &                                       
                       - I N T E G R A L  F E E D E R -                       
                                                                              
 v1 FN, 2020, v2 2021                                                         
------------------------------------------------------------------------------


Reading SHARK input file benzene_mp2.SHARKINP.tmp ... ok
----------------------
SHARK INTEGRAL PACKAGE
----------------------

Number of atoms                             ...     12
Number of basis functions                   ...     96
Number of shells                            ...     48
Maximum angular momentum                    ...      2
Integral batch strategy                     ... SHARK/LIBINT Hybrid
RI-J (if used) integral strategy            ... SPLIT-RIJ (Revised 2003 algorithm where possible)
Printlevel                                  ...      1
Contraction scheme used                     ... SEGMENTED contraction
Coulomb Range Separation                    ... NOT USED
Exchange Range Separation                   ... NOT USED
Finite Nucleus Model                        ... NOT USED
Auxiliary Coulomb fitting basis             ... NOT available
Auxiliary J/K fitting basis                 ... NOT available
Auxiliary Correlation fitting basis         ... NOT available
Auxiliary 'external' fitting basis          ... NOT available
Integral threshold                          ...     2.500000e-11
Primitive cut-off                           ...     2.500000e-12
Primitive pair pre-selection threshold      ...     2.500000e-12

Calculating pre-screening integrals         ... done (  0.1 sec) Dimension = 48
Organizing shell pair data                  ... done (  0.0 sec)
Shell pair information
Total number of shell pairs                 ...      1176
Shell pairs after pre-screening             ...      1158
Total number of primitive shell pairs       ...      6699
Primitive shell pairs kept                  ...      4824
          la=0 lb=0:    447 shell pairs
          la=1 lb=0:    360 shell pairs
          la=1 lb=1:     78 shell pairs
          la=2 lb=0:    180 shell pairs
          la=2 lb=1:     72 shell pairs
          la=2 lb=2:     21 shell pairs

Calculating one electron integrals          ... done (  0.0 sec)
Calculating Nuclear repulsion               ... done (  0.0 sec) ENN=    202.748481991232 Eh

SHARK setup successfully completed in   0.2 seconds

Maximum memory used throughout the entire GTOINT-calculation: 10.6 MB
-------------------------------------------------------------------------------
                                 ORCA SCF
-------------------------------------------------------------------------------

------------
SCF SETTINGS
------------
Hamiltonian:
 Ab initio Hamiltonian  Method          .... Hartree-Fock(GTOs)


General Settings:
 Integral files         IntName         .... benzene_mp2
 Hartree-Fock type      HFTyp           .... RHF
 Total Charge           Charge          ....    0
 Multiplicity           Mult            ....    1
 Number of Electrons    NEL             ....   42
 Basis Dimension        Dim             ....   96
 Nuclear Repulsion      ENuc            ....    202.7484819912 Eh

Convergence Acceleration:
 DIIS                   CNVDIIS         .... on
   Start iteration      DIISMaxIt       ....    12
   Startup error        DIISStart       ....  0.200000
   # of expansion vecs  DIISMaxEq       ....     5
   Bias factor          DIISBfac        ....   1.050
   Max. coefficient     DIISMaxC        ....  10.000
 Trust-Rad. Augm. Hess. CNVTRAH         .... auto
   Auto Start mean grad. ratio tolernc. ....  1.125000
   Auto Start start iteration           ....    20
   Auto Start num. interpolation iter.  ....    10
   Max. Number of Micro iterations      ....    16
   Max. Number of Macro iterations      .... Maxiter - #DIIS iter
   Number of Davidson start vectors     ....     2
   Converg. threshold I  (grad. norm)   ....   1.000e-05
   Converg. threshold II (energy diff.) ....   1.000e-08
   Grad. Scal. Fac. for Micro threshold ....   0.100
   Minimum threshold for Micro iter.    ....   0.010
   NR start threshold (gradient norm)   ....   0.001
   Initial trust radius                 ....   0.400
   Minimum AH scaling param. (alpha)    ....   1.000
   Maximum AH scaling param. (alpha)    .... 1000.000
   Orbital update algorithm             .... Taylor
   White noise on init. David. guess    .... on
   Maximum white noise                  ....   0.010
   Quad. conv. algorithm                .... NR
 SOSCF                  CNVSOSCF        .... on
   Start iteration      SOSCFMaxIt      ....   150
   Startup grad/error   SOSCFStart      ....  0.003300
 Level Shifting         CNVShift        .... on
   Level shift para.    LevelShift      ....    0.2500
   Turn off err/grad.   ShiftErr        ....    0.0010
 Zerner damping         CNVZerner       .... off
 Static damping         CNVDamp         .... on
   Fraction old density DampFac         ....    0.7000
   Max. Damping (<1)    DampMax         ....    0.9800
   Min. Damping (>=0)   DampMin         ....    0.0000
   Turn off err/grad.   DampErr         ....    0.1000
 Fernandez-Rico         CNVRico         .... off

SCF Procedure:
 Maximum # iterations   MaxIter         ....   125
 SCF integral mode      SCFMode         .... Direct
   Integral package                     .... SHARK and LIBINT hybrid scheme
 Reset frequency        DirectResetFreq ....    20
 Integral Threshold     Thresh          ....  2.500e-11 Eh
 Primitive CutOff       TCut            ....  2.500e-12 Eh

Convergence Tolerance:
 Convergence Check Mode ConvCheckMode   .... Total+1el-Energy
 Convergence forced     ConvForced      .... 1
 Energy Change          TolE            ....  1.000e-08 Eh
 1-El. energy change                    ....  1.000e-05 Eh
 Orbital Gradient       TolG            ....  1.000e-05
 Orbital Rotation angle TolX            ....  1.000e-05
 DIIS Error             TolErr          ....  5.000e-07


Diagonalization of the overlap matrix:
Smallest eigenvalue                        ... 5.604e-04
Time for diagonalization                   ...    0.002 sec
Threshold for overlap eigenvalues          ... 1.000e-08
Number of eigenvalues below threshold      ... 0
Time for construction of square roots      ...    0.000 sec
Total time needed                          ...    0.003 sec

Time for model grid setup =    0.154 sec

------------------------------
INITIAL GUESS: MODEL POTENTIAL
------------------------------
Loading Hartree-Fock densities                     ... done
Calculating cut-offs                               ... done
Initializing the effective Hamiltonian             ... done
Setting up the integral package (SHARK)            ... done
Starting the Coulomb interaction                   ... done (   0.1 sec)
Reading the grid                                   ... done
Mapping shells                                     ... done
Starting the XC term evaluation                    ... done (   0.1 sec)
Transforming the Hamiltonian                       ... done (   0.0 sec)
Diagonalizing the Hamiltonian                      ... done (   0.0 sec)
Back transforming the eigenvectors                 ... done (   0.0 sec)
Now organizing SCF variables                       ... done
                      ------------------
                      INITIAL GUESS DONE (   0.3 sec)
                      ------------------
--------------
SCF ITERATIONS
--------------
ITER       Energy         Delta-E        Max-DP      RMS-DP      [F,P]     Damp
               ***  Starting incremental Fock matrix formation  ***
  0   -230.4695150150   0.000000000000 0.03974993  0.00277758  0.1583660 0.7000
  1   -230.5470140182  -0.077499003207 0.03075758  0.00219393  0.1050708 0.7000
                               ***Turning on DIIS***
  2   -230.5954938036  -0.048479785340 0.06636967  0.00496560  0.0637196 0.0000
  3   -230.2742629824   0.321230821210 0.01194152  0.00104136  0.0240514 0.0000
  4   -230.6977065764  -0.423443594073 0.00354556  0.00036357  0.0042525 0.0000
                      *** Initiating the SOSCF procedure ***
                           *** Shutting down DIIS ***
                      *** Re-Reading the Fockian *** 
                      *** Removing any level shift *** 
ITER      Energy       Delta-E        Grad      Rot      Max-DP    RMS-DP
  5   -230.69794615  -0.0002395704  0.001453  0.001453  0.001645  0.000152
               *** Restarting incremental Fock matrix formation ***
  6   -230.69576312   0.0021830226  0.000323  0.000327  0.000516  0.000046
  7   -230.69576493  -0.0000018063  0.000111  0.000141  0.000209  0.000019
  8   -230.69576513  -0.0000002004  0.000018  0.000039  0.000027  0.000001
  9   -230.69576513  -0.0000000036  0.000009  0.000013  0.000008  0.000001
 10   -230.69576514  -0.0000000019  0.000003  0.000015  0.000008  0.000000
                  ***Gradient check signals convergence***
              ***Rediagonalizing the Fockian in SOSCF/NRSCF***

               *****************************************************
               *                     SUCCESS                       *
               *           SCF CONVERGED AFTER  11 CYCLES          *
               *****************************************************


----------------
TOTAL SCF ENERGY
----------------

Total Energy       :         -230.69576514 Eh           -6277.55091 eV

Components:
Nuclear Repulsion  :          202.74848199 Eh            5517.06668 eV
Electronic Energy  :         -433.44424713 Eh          -11794.61759 eV
One Electron Energy:         -712.05981229 Eh          -19376.13256 eV
Two Electron Energy:          278.61556516 Eh            7581.51496 eV

Virial components:
Potential Energy   :         -461.12309305 Eh          -12547.79728 eV
Kinetic Energy     :          230.42732792 Eh            6270.24637 eV
Virial Ratio       :            2.00116495


---------------
SCF CONVERGENCE
---------------

  Last Energy change         ...   -5.1449e-10  Tolerance :   1.0000e-08
  Last MAX-Density change    ...    2.2178e-06  Tolerance :   1.0000e-07
  Last RMS-Density change    ...    1.3408e-07  Tolerance :   5.0000e-09
  Last Orbital Gradient      ...    7.8501e-07  Tolerance :   1.0000e-05
  Last Orbital Rotation      ...    3.9672e-06  Tolerance :   1.0000e-05

             **** THE GBW FILE WAS UPDATED (benzene_mp2.gbw) ****
             **** DENSITY benzene_mp2.scfp WAS UPDATED ****
             **** ENERGY FILE WAS UPDATED (benzene_mp2.en.tmp) ****
             **** THE GBW FILE WAS UPDATED (benzene_mp2.gbw) ****
             **** DENSITY benzene_mp2.scfp WAS UPDATED ****
----------------
ORBITAL ENERGIES
----------------

  NO   OCC          E(Eh)            E(eV) 
   0   2.0000     -11.235995      -305.7470 
   1   2.0000     -11.233960      -305.6916 
   2   2.0000     -11.232658      -305.6562 
   3   2.0000     -11.232506      -305.6520 
   4   2.0000     -11.231267      -305.6183 
   5   2.0000     -11.229517      -305.5707 
   6   2.0000      -1.139979       -31.0204 
   7   2.0000      -1.007949       -27.4277 
   8   2.0000      -1.005101       -27.3502 
   9   2.0000      -0.820542       -22.3281 
  10   2.0000      -0.812416       -22.1070 
  11   2.0000      -0.700031       -19.0488 
  12   2.0000      -0.638843       -17.3838 
  13   2.0000      -0.610361       -16.6088 
  14   2.0000      -0.580535       -15.7972 
  15   2.0000      -0.578029       -15.7290 
  16   2.0000      -0.492897       -13.4124 
  17   2.0000      -0.492369       -13.3980 
  18   2.0000      -0.481822       -13.1110 
  19   2.0000      -0.328792        -8.9469 
  20   2.0000      -0.328757        -8.9459 
  21   0.0000       0.145370         3.9557 
  22   0.0000       0.146154         3.9771 
  23   0.0000       0.231853         6.3090 
  24   0.0000       0.288605         7.8533 
  25   0.0000       0.293096         7.9756 
  26   0.0000       0.321965         8.7611 
  27   0.0000       0.331188         9.0121 
  28   0.0000       0.339528         9.2390 
  29   0.0000       0.363651         9.8954 
  30   0.0000       0.463271        12.6062 
  31   0.0000       0.473584        12.8869 
  32   0.0000       0.487403        13.2629 
  33   0.0000       0.500357        13.6154 
  34   0.0000       0.659432        17.9441 
  35   0.0000       0.741856        20.1869 
  36   0.0000       0.756729        20.5916 
  37   0.0000       0.763208        20.7680 
  38   0.0000       0.778504        21.1842 
  39   0.0000       0.801714        21.8158 
  40   0.0000       0.833001        22.6671 
  41   0.0000       0.833209        22.6728 
  42   0.0000       0.847234        23.0544 
  43   0.0000       0.849096        23.1051 
  44   0.0000       0.854349        23.2480 
  45   0.0000       0.862178        23.4611 
  46   0.0000       0.912747        24.8371 
  47   0.0000       0.913685        24.8626 
  48   0.0000       0.993972        27.0473 
  49   0.0000       1.109835        30.2001 
  50   0.0000       1.111345        30.2412 
  51   0.0000       1.113469        30.2990 
  52   0.0000       1.119796        30.4712 
  53   0.0000       1.126290        30.6479 
  54   0.0000       1.186142        32.2766 
  55   0.0000       1.189719        32.3739 
  56   0.0000       1.202585        32.7240 
  57   0.0000       1.239960        33.7410 
  58   0.0000       1.297597        35.3094 
  59   0.0000       1.314875        35.7796 
  60   0.0000       1.372431        37.3458 
  61   0.0000       1.403729        38.1974 
  62   0.0000       1.463468        39.8230 
  63   0.0000       1.517156        41.2839 
  64   0.0000       1.664421        45.2912 
  65   0.0000       1.692721        46.0613 
  66   0.0000       1.698891        46.2292 
  67   0.0000       1.762904        47.9711 
  68   0.0000       1.764898        48.0253 
  69   0.0000       1.794190        48.8224 
  70   0.0000       1.795355        48.8541 
  71   0.0000       2.057502        55.9875 
  72   0.0000       2.088167        56.8219 
  73   0.0000       2.146865        58.4192 
  74   0.0000       2.164275        58.8929 
  75   0.0000       2.288636        62.2770 
  76   0.0000       2.300156        62.5904 
  77   0.0000       2.384982        64.8987 
  78   0.0000       2.399749        65.3005 
  79   0.0000       2.462756        67.0150 
  80   0.0000       2.464716        67.0683 
  81   0.0000       2.467890        67.1547 
  82   0.0000       2.478031        67.4307 
  83   0.0000       2.631507        71.6069 
  84   0.0000       2.632469        71.6331 
  85   0.0000       2.640441        71.8500 
  86   0.0000       2.871943        78.1495 
  87   0.0000       2.881166        78.4005 
  88   0.0000       2.991287        81.3970 
  89   0.0000       3.041361        82.7597 
  90   0.0000       3.063834        83.3712 
  91   0.0000       3.078690        83.7754 
  92   0.0000       3.079598        83.8001 
  93   0.0000       3.100760        84.3760 
  94   0.0000       3.389345        92.2288 
  95   0.0000       3.764759       102.4443 

                    ********************************
                    * MULLIKEN POPULATION ANALYSIS *
                    ********************************

-----------------------
MULLIKEN ATOMIC CHARGES
-----------------------
   0 C :   -0.201110
   1 C :   -0.206034
   2 C :   -0.200521
   3 C :   -0.202514
   4 C :   -0.201782
   5 C :   -0.201588
   6 H :    0.200367
   7 H :    0.199854
   8 H :    0.202139
   9 H :    0.204312
  10 H :    0.203345
  11 H :    0.203532
Sum of atomic charges:    0.0000000

--------------------------------
MULLIKEN REDUCED ORBITAL CHARGES
--------------------------------
  0 C s       :     3.173755  s :     3.173755
      pz      :     0.945840  p :     2.981373
      px      :     1.046469
      py      :     0.989064
      dz2     :     0.013739  d :     0.045982
      dxz     :     0.013327
      dyz     :     0.006108
      dx2y2   :     0.008958
      dxy     :     0.003849
  1 C s       :     3.176037  s :     3.176037
      pz      :     0.956354  p :     2.983774
      px      :     1.038920
      py      :     0.988500
      dz2     :     0.011594  d :     0.046222
      dxz     :     0.017350
      dyz     :     0.005965
      dx2y2   :     0.007516
      dxy     :     0.003797
  2 C s       :     3.175438  s :     3.175438
      pz      :     1.075050  p :     2.979180
      px      :     0.917464
      py      :     0.986665
      dz2     :     0.015431  d :     0.045902
      dxz     :     0.013450
      dyz     :     0.002782
      dx2y2   :     0.007169
      dxy     :     0.007070
  3 C s       :     3.174822  s :     3.174822
      pz      :     0.954935  p :     2.981756
      px      :     1.036407
      py      :     0.990414
      dz2     :     0.011773  d :     0.045936
      dxz     :     0.016768
      dyz     :     0.006037
      dx2y2   :     0.007491
      dxy     :     0.003867
  4 C s       :     3.174342  s :     3.174342
      pz      :     0.954505  p :     2.981445
      px      :     1.035239
      py      :     0.991701
      dz2     :     0.011696  d :     0.045995
      dxz     :     0.016822
      dyz     :     0.006077
      dx2y2   :     0.007485
      dxy     :     0.003915
  5 C s       :     3.173155  s :     3.173155
      pz      :     1.077008  p :     2.982324
      px      :     0.911179
      py      :     0.994137
      dz2     :     0.015425  d :     0.046109
      dxz     :     0.013441
      dyz     :     0.002840
      dx2y2   :     0.007193
      dxy     :     0.007211
  6 H s       :     0.799633  s :     0.799633
  7 H s       :     0.800146  s :     0.800146
  8 H s       :     0.797861  s :     0.797861
  9 H s       :     0.795688  s :     0.795688
 10 H s       :     0.796655  s :     0.796655
 11 H s       :     0.796468  s :     0.796468


                     *******************************
                     * LOEWDIN POPULATION ANALYSIS *
                     *******************************

----------------------
LOEWDIN ATOMIC CHARGES
----------------------
   0 C :   -0.139891
   1 C :   -0.140033
   2 C :   -0.137217
   3 C :   -0.137491
   4 C :   -0.136572
   5 C :   -0.135573
   6 H :    0.135854
   7 H :    0.136115
   8 H :    0.137298
   9 H :    0.138446
  10 H :    0.138324
  11 H :    0.140739

-------------------------------
LOEWDIN REDUCED ORBITAL CHARGES
-------------------------------
  0 C s       :     2.915863  s :     2.915863
      pz      :     1.070621  p :     3.131945
      px      :     1.080024
      py      :     0.981299
      dz2     :     0.029859  d :     0.092084
      dxz     :     0.029468
      dyz     :     0.011630
      dx2y2   :     0.014738
      dxy     :     0.006389
  1 C s       :     2.918057  s :     2.918057
      pz      :     1.073493  p :     3.129105
      px      :     1.075404
      py      :     0.980208
      dz2     :     0.025730  d :     0.092871
      dxz     :     0.036635
      dyz     :     0.011507
      dx2y2   :     0.012711
      dxy     :     0.006289
  2 C s       :     2.917054  s :     2.917054
      pz      :     1.079921  p :     3.128060
      px      :     1.069043
      py      :     0.979096
      dz2     :     0.028951  d :     0.092103
      dxz     :     0.029628
      dyz     :     0.003758
      dx2y2   :     0.015652
      dxy     :     0.014114
  3 C s       :     2.916222  s :     2.916222
      pz      :     1.069850  p :     3.129183
      px      :     1.076997
      py      :     0.982336
      dz2     :     0.026104  d :     0.092086
      dxz     :     0.035443
      dyz     :     0.011590
      dx2y2   :     0.012607
      dxy     :     0.006343
  4 C s       :     2.915710  s :     2.915710
      pz      :     1.070248  p :     3.128724
      px      :     1.075020
      py      :     0.983457
      dz2     :     0.025903  d :     0.092138
      dxz     :     0.035580
      dyz     :     0.011656
      dx2y2   :     0.012572
      dxy     :     0.006426
  5 C s       :     2.913919  s :     2.913919
      pz      :     1.080888  p :     3.129467
      px      :     1.062756
      py      :     0.985822
      dz2     :     0.028923  d :     0.092187
      dxz     :     0.029618
      dyz     :     0.003791
      dx2y2   :     0.015565
      dxy     :     0.014290
  6 H s       :     0.864146  s :     0.864146
  7 H s       :     0.863885  s :     0.863885
  8 H s       :     0.862702  s :     0.862702
  9 H s       :     0.861554  s :     0.861554
 10 H s       :     0.861676  s :     0.861676
 11 H s       :     0.859261  s :     0.859261


                      *****************************
                      * MAYER POPULATION ANALYSIS *
                      *****************************

  NA   - Mulliken gross atomic population
  ZA   - Total nuclear charge
  QA   - Mulliken gross atomic charge
  VA   - Mayer's total valence
  BVA  - Mayer's bonded valence
  FA   - Mayer's free valence

  ATOM       NA         ZA         QA         VA         BVA        FA
  0 C      6.2011     6.0000    -0.2011     3.8993     3.8993    -0.0000
  1 C      6.2060     6.0000    -0.2060     3.8938     3.8938     0.0000
  2 C      6.2005     6.0000    -0.2005     3.9053     3.9053     0.0000
  3 C      6.2025     6.0000    -0.2025     3.9006     3.9006     0.0000
  4 C      6.2018     6.0000    -0.2018     3.8977     3.8977    -0.0000
  5 C      6.2016     6.0000    -0.2016     3.9057     3.9057     0.0000
  6 H      0.7996     1.0000     0.2004     0.9276     0.9276     0.0000
  7 H      0.8001     1.0000     0.1999     0.9273     0.9273     0.0000
  8 H      0.7979     1.0000     0.2021     0.9269     0.9269     0.0000
  9 H      0.7957     1.0000     0.2043     0.9265     0.9265     0.0000
 10 H      0.7967     1.0000     0.2033     0.9262     0.9262     0.0000
 11 H      0.7965     1.0000     0.2035     0.9263     0.9263    -0.0000

  Mayer bond orders larger than 0.100000
B(  0-C ,  1-C ) :   1.4443 B(  0-C ,  5-C ) :   1.4534 B(  0-C , 11-H ) :   0.9412 
B(  1-C ,  2-C ) :   1.4511 B(  1-C ,  6-H ) :   0.9435 B(  2-C ,  3-C ) :   1.4525 
B(  2-C ,  7-H ) :   0.9420 B(  3-C ,  4-C ) :   1.4468 B(  3-C ,  8-H ) :   0.9416 
B(  4-C ,  5-C ) :   1.4485 B(  4-C ,  9-H ) :   0.9413 B(  5-C , 10-H ) :   0.9399 


-------
TIMINGS
-------

Total SCF time: 0 days 0 hours 0 min 16 sec 

Total time                  ....      16.607 sec
Sum of individual times     ....      16.452 sec  ( 99.1%)

Fock matrix formation       ....      16.099 sec  ( 96.9%)
Diagonalization             ....       0.014 sec  (  0.1%)
Density matrix formation    ....       0.001 sec  (  0.0%)
Population analysis         ....       0.002 sec  (  0.0%)
Initial guess               ....       0.175 sec  (  1.1%)
Orbital Transformation      ....       0.000 sec  (  0.0%)
Orbital Orthonormalization  ....       0.000 sec  (  0.0%)
DIIS solution               ....       0.002 sec  (  0.0%)
SOSCF solution              ....       0.005 sec  (  0.0%)

Maximum memory used throughout the entire SCF-calculation: 233.7 MB

------------------------------------------------------------------------------
                                ORCA  MP2 
------------------------------------------------------------------------------

MP2 will be done in the AO integral direct mode
The Q1-step will be done using symmetric double matrices
Dimension of the basis                    ...   96
Memory devoted for MP2                    ...  256 MB   
Memory needed for all in one shot         ...   73 MB
Number of MOs that can be treated together...   74      
MP2 density construction                  ... relaxed
The MP2 gradient is requested => amplitudes will be stored on disk
Total number of MOs              ...   21
Number of MOs treated per batch  ...   21 
Number of batches necessary      ...    1 
OPERATORS   0/  0 PASS   0
-----------------------------------------------
 MP2 CORRELATION ENERGY   :     -0.764392765 Eh
-----------------------------------------------


---------------------
MP2 DENSITY FORMATION
---------------------

Completing the external part of the density      ... done
Storing the unrelaxed density                    ... done

Calculating G(D)                                 ... done
Completing the Lagrangian                        ... done
Solving the Z-vector equations                   ... 

------------------------------------------------------------------------------
                           ORCA CP-SCF CALCULATION
------------------------------------------------------------------------------

Input orbitals are from        ... benzene_mp2.gbw
Input Perturbation             ... benzene_mp2.pin.tmp
Wavefunction output            ... benzene_mp2.pout.tmp
Perturbation mode              ... Real perturbation (singlet)
Solver                         ... POPLE
Max. number of iterations      ... 128
Convergence tolerance          ... 1.000e-04
Integral handling              ... Direct
Number of perturbations        ... 1
Number of operators            ... 1
Orbital ranges used for CP-SCF:
 Operator 0:  Orbitals   0... 20  to  21... 95
Variables per perturbation     ... 1575
Memory available               ... 1012.4 MB
Memory needed per perturbation ...   3.3 MB
Perturbations treated per batch... 1
Number of batches              ... 1
     CP-SCF ITERATION   0:   6.1279e-02 (   1.4 sec)
     CP-SCF ITERATION   1:   9.0949e-03 (   1.4 sec)
     CP-SCF ITERATION   2:   1.7435e-03 (   1.4 sec)
     CP-SCF ITERATION   3:   3.9835e-04 (   1.4 sec)
     CP-SCF ITERATION   4:   1.9322e-04 (   1.4 sec)
     CP-SCF ITERATION   5:   6.8799e-05 (   1.4 sec)
                    *** THE CP-SCF HAS CONVERGED ***
                                                 ... done
Finalizing the relaxed density                   ... done
Transforming P to the AO basis                   ... done
Storing the relaxed density                      ... done

------------------------------------
ENERGY WEIGHTED DENSITY FINALIZATION
------------------------------------

Gathering the parts of the W-matrix              ...                                                      done
Forming the Z-density                            ... done
Transforming Z to the AO basis                   ... done
Calculating G(Z)                                 ... done
Finalizing the W-matrix                          ...                                                      done
Transforming W to the AO basis and storing       ... done

                *********************************************
                * UNRELAXED MP2 DENSITY POPULATION ANALYSIS *
                *********************************************

------------------------------------------------------------------------------
                           ORCA POPULATION ANALYSIS
------------------------------------------------------------------------------
Input electron density              ... benzene_mp2.pmp2ur
BaseName (.gbw .S,...)              ... benzene_mp2

                    ********************************
                    * MULLIKEN POPULATION ANALYSIS *
                    ********************************

-----------------------
MULLIKEN ATOMIC CHARGES
-----------------------
   0 C :   -0.203241
   1 C :   -0.208391
   2 C :   -0.202851
   3 C :   -0.204791
   4 C :   -0.204053
   5 C :   -0.203906
   6 H :    0.202656
   7 H :    0.202139
   8 H :    0.204424
   9 H :    0.206600
  10 H :    0.205624
  11 H :    0.205790
Sum of atomic charges:    0.0000000

--------------------------------
MULLIKEN REDUCED ORBITAL CHARGES
--------------------------------
  0 C s       :     3.172658  s :     3.172658
      pz      :     0.941653  p :     2.968001
      px      :     1.041251
      py      :     0.985097
      dz2     :     0.016789  d :     0.062582
      dxz     :     0.016894
      dyz     :     0.009780
      dx2y2   :     0.011887
      dxy     :     0.007233
  1 C s       :     3.174900  s :     3.174900
      pz      :     0.951871  p :     2.970705
      px      :     1.034314
      py      :     0.984520
      dz2     :     0.014744  d :     0.062785
      dxz     :     0.020812
      dyz     :     0.009682
      dx2y2   :     0.010404
      dxy     :     0.007144
  2 C s       :     3.174337  s :     3.174337
      pz      :     1.070207  p :     2.966052
      px      :     0.913085
      py      :     0.982760
      dz2     :     0.018840  d :     0.062462
      dxz     :     0.016612
      dyz     :     0.005940
      dx2y2   :     0.010116
      dxy     :     0.010953
  3 C s       :     3.173743  s :     3.173743
      pz      :     0.950504  p :     2.968559
      px      :     1.031683
      py      :     0.986372
      dz2     :     0.014896  d :     0.062490
      dxz     :     0.020260
      dyz     :     0.009740
      dx2y2   :     0.010383
      dxy     :     0.007210
  4 C s       :     3.173251  s :     3.173251
      pz      :     0.950038  p :     2.968268
      px      :     1.030528
      py      :     0.987702
      dz2     :     0.014819  d :     0.062534
      dxz     :     0.020310
      dyz     :     0.009780
      dx2y2   :     0.010370
      dxy     :     0.007254
  5 C s       :     3.172162  s :     3.172162
      pz      :     1.072193  p :     2.969109
      px      :     0.906920
      py      :     0.989996
      dz2     :     0.018835  d :     0.062636
      dxz     :     0.016590
      dyz     :     0.006000
      dx2y2   :     0.010129
      dxy     :     0.011082
  6 H s       :     0.797344  s :     0.797344
  7 H s       :     0.797861  s :     0.797861
  8 H s       :     0.795576  s :     0.795576
  9 H s       :     0.793400  s :     0.793400
 10 H s       :     0.794376  s :     0.794376
 11 H s       :     0.794210  s :     0.794210


                     *******************************
                     * LOEWDIN POPULATION ANALYSIS *
                     *******************************

----------------------
LOEWDIN ATOMIC CHARGES
----------------------
   0 C :   -0.143169
   1 C :   -0.143462
   2 C :   -0.140622
   3 C :   -0.140796
   4 C :   -0.139914
   5 C :   -0.138794
   6 H :    0.139202
   7 H :    0.139454
   8 H :    0.140637
   9 H :    0.141784
  10 H :    0.141658
  11 H :    0.144022

-------------------------------
LOEWDIN REDUCED ORBITAL CHARGES
-------------------------------
  0 C s       :     2.916209  s :     2.916209
      pz      :     1.063875  p :     3.115004
      px      :     1.074097
      py      :     0.977032
      dz2     :     0.034184  d :     0.111956
      dxz     :     0.033791
      dyz     :     0.015460
      dx2y2   :     0.018618
      dxy     :     0.009903
  1 C s       :     2.918365  s :     2.918365
      pz      :     1.066614  p :     3.112390
      px      :     1.069835
      py      :     0.975940
      dz2     :     0.030214  d :     0.112707
      dxz     :     0.040813
      dyz     :     0.015381
      dx2y2   :     0.016527
      dxy     :     0.009771
  2 C s       :     2.917366  s :     2.917366
      pz      :     1.074758  p :     3.111326
      px      :     1.061685
      py      :     0.974883
      dz2     :     0.032640  d :     0.111930
      dxz     :     0.034128
      dyz     :     0.007039
      dx2y2   :     0.019958
      dxy     :     0.018166
  3 C s       :     2.916551  s :     2.916551
      pz      :     1.063067  p :     3.112338
      px      :     1.071268
      py      :     0.978004
      dz2     :     0.030550  d :     0.111907
      dxz     :     0.039658
      dyz     :     0.015450
      dx2y2   :     0.016428
      dxy     :     0.009821
  4 C s       :     2.916050  s :     2.916050
      pz      :     1.063453  p :     3.111924
      px      :     1.069300
      py      :     0.979170
      dz2     :     0.030349  d :     0.111939
      dxz     :     0.039788
      dyz     :     0.015514
      dx2y2   :     0.016388
      dxy     :     0.009900
  5 C s       :     2.914260  s :     2.914260
      pz      :     1.075664  p :     3.112560
      px      :     1.055491
      py      :     0.981405
      dz2     :     0.032610  d :     0.111973
      dxz     :     0.034093
      dyz     :     0.007075
      dx2y2   :     0.019866
      dxy     :     0.018329
  6 H s       :     0.860798  s :     0.860798
  7 H s       :     0.860546  s :     0.860546
  8 H s       :     0.859363  s :     0.859363
  9 H s       :     0.858216  s :     0.858216
 10 H s       :     0.858342  s :     0.858342
 11 H s       :     0.855978  s :     0.855978


                      *****************************
                      * MAYER POPULATION ANALYSIS *
                      *****************************

  NA   - Mulliken gross atomic population
  ZA   - Total nuclear charge
  QA   - Mulliken gross atomic charge
  VA   - Mayer's total valence
  BVA  - Mayer's bonded valence
  FA   - Mayer's free valence

  ATOM       NA         ZA         QA         VA         BVA        FA
  0 C      6.2032     6.0000    -0.2032     3.9741     3.6435     0.3305
  1 C      6.2084     6.0000    -0.2084     3.9696     3.6387     0.3309
  2 C      6.2029     6.0000    -0.2029     3.9796     3.6501     0.3295
  3 C      6.2048     6.0000    -0.2048     3.9754     3.6454     0.3299
  4 C      6.2041     6.0000    -0.2041     3.9724     3.6424     0.3300
  5 C      6.2039     6.0000    -0.2039     3.9801     3.6501     0.3300
  6 H      0.7973     1.0000     0.2027     0.9302     0.8922     0.0380
  7 H      0.7979     1.0000     0.2021     0.9300     0.8919     0.0381
  8 H      0.7956     1.0000     0.2044     0.9295     0.8916     0.0379
  9 H      0.7934     1.0000     0.2066     0.9291     0.8913     0.0378
 10 H      0.7944     1.0000     0.2056     0.9288     0.8908     0.0380
 11 H      0.7942     1.0000     0.2058     0.9290     0.8907     0.0382

  Mayer bond orders larger than 0.100000
B(  0-C ,  1-C ) :   1.3460 B(  0-C ,  5-C ) :   1.3554 B(  0-C , 11-H ) :   0.9068 
B(  1-C ,  2-C ) :   1.3533 B(  1-C ,  6-H ) :   0.9094 B(  2-C ,  3-C ) :   1.3542 
B(  2-C ,  7-H ) :   0.9078 B(  3-C ,  4-C ) :   1.3490 B(  3-C ,  8-H ) :   0.9075 
B(  4-C ,  5-C ) :   1.3501 B(  4-C ,  9-H ) :   0.9072 B(  5-C , 10-H ) :   0.9057 



                *******************************************
                * RELAXED MP2 DENSITY POPULATION ANALYSIS *
                *******************************************

------------------------------------------------------------------------------
                           ORCA POPULATION ANALYSIS
------------------------------------------------------------------------------
Input electron density              ... benzene_mp2.pmp2re
BaseName (.gbw .S,...)              ... benzene_mp2

                    ********************************
                    * MULLIKEN POPULATION ANALYSIS *
                    ********************************

-----------------------
MULLIKEN ATOMIC CHARGES
-----------------------
   0 C :   -0.167920
   1 C :   -0.177655
   2 C :   -0.169525
   3 C :   -0.173192
   4 C :   -0.172542
   5 C :   -0.175894
   6 H :    0.171228
   7 H :    0.170392
   8 H :    0.172732
   9 H :    0.174600
  10 H :    0.174168
  11 H :    0.173608
Sum of atomic charges:    0.0000000

--------------------------------
MULLIKEN REDUCED ORBITAL CHARGES
--------------------------------
  0 C s       :     3.170680  s :     3.170680
      pz      :     0.952024  p :     2.940405
      px      :     1.001702
      py      :     0.986680
      dz2     :     0.014731  d :     0.056835
      dxz     :     0.015411
      dyz     :     0.009310
      dx2y2   :     0.010660
      dxy     :     0.006724
  1 C s       :     3.170798  s :     3.170798
      pz      :     0.949829  p :     2.949782
      px      :     1.014109
      py      :     0.985844
      dz2     :     0.012943  d :     0.057075
      dxz     :     0.018861
      dyz     :     0.009237
      dx2y2   :     0.009380
      dxy     :     0.006655
  2 C s       :     3.171266  s :     3.171266
      pz      :     1.033354  p :     2.941536
      px      :     0.923909
      py      :     0.984272
      dz2     :     0.017375  d :     0.056723
      dxz     :     0.014446
      dyz     :     0.005428
      dx2y2   :     0.008977
      dxy     :     0.010497
  3 C s       :     3.171856  s :     3.171856
      pz      :     0.950845  p :     2.944578
      px      :     1.006891
      py      :     0.986842
      dz2     :     0.013081  d :     0.056759
      dxz     :     0.018332
      dyz     :     0.009279
      dx2y2   :     0.009353
      dxy     :     0.006713
  4 C s       :     3.172072  s :     3.172072
      pz      :     0.948630  p :     2.943701
      px      :     1.005896
      py      :     0.989175
      dz2     :     0.012993  d :     0.056768
      dxz     :     0.018398
      dyz     :     0.009303
      dx2y2   :     0.009327
      dxy     :     0.006747
  5 C s       :     3.172787  s :     3.172787
      pz      :     1.036342  p :     2.946210
      px      :     0.920435
      py      :     0.989433
      dz2     :     0.017360  d :     0.056897
      dxz     :     0.014465
      dyz     :     0.005492
      dx2y2   :     0.008967
      dxy     :     0.010613
  6 H s       :     0.828772  s :     0.828772
  7 H s       :     0.829608  s :     0.829608
  8 H s       :     0.827268  s :     0.827268
  9 H s       :     0.825400  s :     0.825400
 10 H s       :     0.825832  s :     0.825832
 11 H s       :     0.826392  s :     0.826392


                     *******************************
                     * LOEWDIN POPULATION ANALYSIS *
                     *******************************

----------------------
LOEWDIN ATOMIC CHARGES
----------------------
   0 C :   -0.142914
   1 C :   -0.143258
   2 C :   -0.140567
   3 C :   -0.140201
   4 C :   -0.139917
   5 C :   -0.138026
   6 H :    0.138900
   7 H :    0.139186
   8 H :    0.140341
   9 H :    0.141409
  10 H :    0.141365
  11 H :    0.143682

-------------------------------
LOEWDIN REDUCED ORBITAL CHARGES
-------------------------------
  0 C s       :     2.919367  s :     2.919367
      pz      :     1.067637  p :     3.116818
      px      :     1.070796
      py      :     0.978385
      dz2     :     0.032296  d :     0.106730
      dxz     :     0.032589
      dyz     :     0.015033
      dx2y2   :     0.017332
      dxy     :     0.009479
  1 C s       :     2.921454  s :     2.921454
      pz      :     1.067100  p :     3.114242
      px      :     1.070094
      py      :     0.977047
      dz2     :     0.028753  d :     0.107562
      dxz     :     0.038983
      dyz     :     0.014992
      dx2y2   :     0.015455
      dxy     :     0.009379
  2 C s       :     2.920486  s :     2.920486
      pz      :     1.073655  p :     3.113285
      px      :     1.063425
      py      :     0.976205
      dz2     :     0.031071  d :     0.106797
      dxz     :     0.032130
      dyz     :     0.006639
      dx2y2   :     0.019224
      dxy     :     0.017732
  3 C s       :     2.919770  s :     2.919770
      pz      :     1.064334  p :     3.113677
      px      :     1.070934
      py      :     0.978410
      dz2     :     0.029003  d :     0.106754
      dxz     :     0.037924
      dyz     :     0.015040
      dx2y2   :     0.015369
      dxy     :     0.009417
  4 C s       :     2.919246  s :     2.919246
      pz      :     1.064624  p :     3.113954
      px      :     1.068932
      py      :     0.980399
      dz2     :     0.028799  d :     0.106717
      dxz     :     0.038060
      dyz     :     0.015074
      dx2y2   :     0.015310
      dxy     :     0.009474
  5 C s       :     2.917695  s :     2.917695
      pz      :     1.074764  p :     3.113516
      px      :     1.057778
      py      :     0.980974
      dz2     :     0.031075  d :     0.106815
      dxz     :     0.032082
      dyz     :     0.006684
      dx2y2   :     0.019092
      dxy     :     0.017881
  6 H s       :     0.861100  s :     0.861100
  7 H s       :     0.860814  s :     0.860814
  8 H s       :     0.859659  s :     0.859659
  9 H s       :     0.858591  s :     0.858591
 10 H s       :     0.858635  s :     0.858635
 11 H s       :     0.856318  s :     0.856318


                      *****************************
                      * MAYER POPULATION ANALYSIS *
                      *****************************

  NA   - Mulliken gross atomic population
  ZA   - Total nuclear charge
  QA   - Mulliken gross atomic charge
  VA   - Mayer's total valence
  BVA  - Mayer's bonded valence
  FA   - Mayer's free valence

  ATOM       NA         ZA         QA         VA         BVA        FA
  0 C      6.1679     6.0000    -0.1679     4.0105     3.6856     0.3248
  1 C      6.1777     6.0000    -0.1777     4.0147     3.6894     0.3253
  2 C      6.1695     6.0000    -0.1695     4.0193     3.6953     0.3240
  3 C      6.1732     6.0000    -0.1732     4.0133     3.6889     0.3244
  4 C      6.1725     6.0000    -0.1725     4.0086     3.6841     0.3245
  5 C      6.1759     6.0000    -0.1759     4.0105     3.6859     0.3246
  6 H      0.8288     1.0000     0.1712     0.9355     0.8972     0.0383
  7 H      0.8296     1.0000     0.1704     0.9354     0.8970     0.0383
  8 H      0.8273     1.0000     0.1727     0.9352     0.8969     0.0382
  9 H      0.8254     1.0000     0.1746     0.9351     0.8970     0.0381
 10 H      0.8258     1.0000     0.1742     0.9347     0.8965     0.0382
 11 H      0.8264     1.0000     0.1736     0.9351     0.8965     0.0385

  Mayer bond orders larger than 0.100000
B(  0-C ,  1-C ) :   1.3588 B(  0-C ,  5-C ) :   1.3576 B(  0-C , 11-H ) :   0.9006 
B(  1-C ,  2-C ) :   1.3636 B(  1-C ,  6-H ) :   0.9021 B(  2-C ,  3-C ) :   1.3633 
B(  2-C ,  7-H ) :   0.9011 B(  3-C ,  4-C ) :   1.3559 B(  3-C ,  8-H ) :   0.9012 
B(  4-C ,  5-C ) :   1.3563 B(  4-C ,  9-H ) :   0.9015 B(  5-C , 10-H ) :   0.9002 



----------------------------------
MP2 DERIVATIVE INTEGRAL GENERATION
----------------------------------


Input Wavefunction Amplitudes       ... benzene_mp2.mp2tsaa.tmp
Input Correlated Electron Density   ... benzene_mp2.pmp2re
Input Energy Weighted Density       ... benzene_mp2.wmp2.tmp
Input SCF Electron Density          ... benzene_mp2.scfp

One-Electron Terms    ...
                        ... One-Electron Terms done
Prescreening matrices              ... done

Batch handling in the gradient evaluation:
Memory available                      ...  256.0 MB
Memory per occupied orbital in Q2     ...    1.5 MB
Memory per occupied orbital in Q3     ...    0.0 MB
Total memory requirement per |i>      ...    1.5 MB
Max. Number of orbitals possible      ...    171
Number of orbitals treated per batch  ...     21
Number of batches to be done          ...      1
Batch   0: i=    0 ...    20

---------------------------------------
MP2 TOTAL ENERGY:     -231.460157902 Eh
---------------------------------------

The final MP2 gradient
  0:   0.00802276  -0.00000000  -0.02133415
  1:  -0.01340500  -0.00000000  -0.00381773
  2:   0.00007042  -0.00000000   0.00003835
  3:   0.00232488   0.00000000   0.00045372
  4:   0.00348064   0.00000000  -0.00217896
  5:   0.00743686  -0.00000000   0.00428397
  6:  -0.00119634   0.00000000   0.00079290
  7:  -0.00059252  -0.00000000   0.00090384
  8:   0.00097171  -0.00000000   0.00068947
  9:   0.00150330   0.00000000  -0.00023461
 10:  -0.00031334   0.00000000  -0.00095044
 11:  -0.00830336   0.00000000   0.02135365

-----------------------------------
NORM OF THE MP2 GRADIENT:  0.036644
-----------------------------------

Maximum memory used throughout the entire MP2-calculation: 120.6 MB

-------------------------   --------------------
FINAL SINGLE POINT ENERGY      -231.460157901912
-------------------------   --------------------

------------------------------------------------------------------------------
                         ORCA GEOMETRY RELAXATION STEP
------------------------------------------------------------------------------

Reading the OPT-File                    .... done
Getting information on internals        .... done
Copying old internal coords+grads       .... done
Making the new internal coordinates     .... (new redundants).... done
Validating the new internal coordinates .... (new redundants).... done
Calculating the B-matrix                .... done
Calculating the G,G- and P matrices     .... done
Transforming gradient to internals      .... done
Projecting the internal gradient        .... done
Number of atoms                         ....  12
Number of internal coordinates          ....  54
Current Energy                          ....  -231.460157902 Eh
Current gradient norm                   ....     0.036644336 Eh/bohr
Maximum allowed component of the step   ....  0.300
Current trust radius                    ....  0.300
Evaluating the initial hessian          ....  (Almloef) done
Projecting the Hessian                  .... done
Forming the augmented Hessian           .... done
Diagonalizing the augmented Hessian     .... done
Last element of RFO vector              ....  0.995351626
Lowest eigenvalues of augmented Hessian:
 -0.003413598  0.025015034  0.025015050  0.025015054  0.025015096
Length of the computed step             ....  0.096757291
The final length of the internal step   ....  0.096757291
Converting the step to cartesian space:
 Initial RMS(Int)=    0.0131669996
Transforming coordinates:
 Iter   0:  RMS(Cart)=    0.0225232295 RMS(Int)=    2.0944364599
 Iter   1:  RMS(Cart)=    0.0006388771 RMS(Int)=    0.0005460422
 Iter   2:  RMS(Cart)=    0.0000373069 RMS(Int)=    0.0000236042
 Iter   3:  RMS(Cart)=    0.0000023612 RMS(Int)=    0.0000020108
 Iter   4:  RMS(Cart)=    0.0000001378 RMS(Int)=    0.0000000876
 Iter   5:  RMS(Cart)=    0.0000000087 RMS(Int)=    0.0000000074
done
Storing new coordinates                 .... done

                                .--------------------.
          ----------------------|Geometry convergence|-------------------------
          Item                value                   Tolerance       Converged
          ---------------------------------------------------------------------
          RMS gradient        0.0048401488            0.0001000000      NO
          MAX gradient        0.0242688895            0.0003000000      NO
          RMS step            0.0131669996            0.0020000000      NO
          MAX step            0.0680321832            0.0040000000      NO
          ........................................................
          Max(Bonds)      0.0068      Max(Angles)    3.90
          Max(Dihed)        0.00      Max(Improp)    0.00
          ---------------------------------------------------------------------

The optimization has not yet converged - more geometry cycles are needed


    ---------------------------------------------------------------------------
                         Redundant Internal Coordinates
                            (Angstroem and degrees)

        Definition                    Value    dE/dq     Step     New-Value
    ----------------------------------------------------------------------------
     1. B(C   1,C   0)                1.4000 -0.003546  0.0032    1.4032   
     2. B(C   2,C   1)                1.4000  0.003096 -0.0026    1.3974   
     3. B(C   3,C   2)                1.4000  0.004540 -0.0040    1.3960   
     4. B(C   4,C   3)                1.4000  0.002606 -0.0024    1.3976   
     5. B(C   5,C   4)                1.4000  0.003459 -0.0031    1.3969   
     6. B(C   5,C   0)                1.4000  0.007769 -0.0068    1.3932   
     7. B(H   6,C   1)                1.0890  0.001433 -0.0021    1.0869   
     8. B(H   7,C   2)                1.0890  0.000904 -0.0013    1.0877   
     9. B(H   8,C   3)                1.0890  0.001186 -0.0017    1.0873   
    10. B(H   9,C   4)                1.0890  0.001419 -0.0021    1.0869   
    11. B(H  10,C   5)                1.0890  0.000950 -0.0014    1.0876   
    12. B(H  11,C   0)                1.0890  0.000711 -0.0010    1.0880   
    13. A(C   1,C   0,H  11)          109.47 -0.024269    3.90    113.37   
    14. A(C   5,C   0,H  11)          130.53  0.022858   -3.71    126.82   
    15. A(C   1,C   0,C   5)          120.00  0.001411   -0.19    119.81   
    16. A(C   0,C   1,C   2)          120.00 -0.001736    0.27    120.27   
    17. A(C   2,C   1,H   6)          120.00  0.000777   -0.12    119.88   
    18. A(C   0,C   1,H   6)          120.00  0.000959   -0.15    119.85   
    19. A(C   3,C   2,H   7)          120.00 -0.000456    0.04    120.04   
    20. A(C   1,C   2,H   7)          120.00 -0.001675    0.24    120.24   
    21. A(C   1,C   2,C   3)          120.00  0.002131   -0.28    119.72   
    22. A(C   2,C   3,C   4)          120.00  0.000005   -0.01    119.99   
    23. A(C   4,C   3,H   8)          120.00  0.000112   -0.01    119.99   
    24. A(C   2,C   3,H   8)          120.00 -0.000117    0.03    120.03   
    25. A(C   5,C   4,H   9)          120.00  0.001759   -0.25    119.75   
    26. A(C   3,C   4,H   9)          120.00  0.000631   -0.06    119.94   
    27. A(C   3,C   4,C   5)          120.00 -0.002390    0.31    120.31   
    28. A(C   0,C   5,H  10)          120.00 -0.000612    0.10    120.10   
    29. A(C   0,C   5,C   4)          120.00  0.000579   -0.10    119.90   
    30. A(C   4,C   5,H  10)          120.00  0.000033   -0.00    120.00   
    31. D(H   6,C   1,C   0,C   5)    180.00 -0.000000    0.00    180.00   
    32. D(H   6,C   1,C   0,H  11)      0.00 -0.000000    0.00      0.00   
    33. D(C   2,C   1,C   0,H  11)    180.00 -0.000000    0.00    180.00   
    34. D(C   2,C   1,C   0,C   5)      0.00 -0.000000    0.00      0.00   
    35. D(H   7,C   2,C   1,C   0)    180.00  0.000000   -0.00    180.00   
    36. D(C   3,C   2,C   1,C   0)      0.00  0.000000   -0.00     -0.00   
    37. D(C   3,C   2,C   1,H   6)    180.00  0.000000   -0.00    180.00   
    38. D(H   7,C   2,C   1,H   6)      0.00  0.000000   -0.00     -0.00   
    39. D(H   8,C   3,C   2,H   7)      0.00  0.000000   -0.00     -0.00   
    40. D(H   8,C   3,C   2,C   1)    180.00 -0.000000    0.00    180.00   
    41. D(C   4,C   3,C   2,H   7)    180.00  0.000000   -0.00    180.00   
    42. D(C   4,C   3,C   2,C   1)      0.00 -0.000000    0.00      0.00   
    43. D(H   9,C   4,C   3,C   2)    180.00 -0.000000    0.00    180.00   
    44. D(C   5,C   4,C   3,H   8)    180.00 -0.000000    0.00    180.00   
    45. D(C   5,C   4,C   3,C   2)      0.00 -0.000000    0.00      0.00   
    46. D(H   9,C   4,C   3,H   8)      0.00 -0.000000    0.00      0.00   
    47. D(H  10,C   5,C   4,H   9)      0.00 -0.000000   -0.00     -0.00   
    48. D(C   0,C   5,C   4,H   9)    180.00  0.000000   -0.00    180.00   
    49. D(C   0,C   5,C   4,C   3)      0.00  0.000000   -0.00     -0.00   
    50. D(H  10,C   5,C   0,H  11)      0.00 -0.000000    0.00      0.00   
    51. D(H  10,C   5,C   0,C   1)    180.00  0.000000   -0.00    180.00   
    52. D(H  10,C   5,C   4,C   3)    180.00  0.000000   -0.00    180.00   
    53. D(C   4,C   5,C   0,H  11)    180.00 -0.000000    0.00    180.00   
    54. D(C   4,C   5,C   0,C   1)      0.00 -0.000000    0.00      0.00   
    ----------------------------------------------------------------------------

         *************************************************************
         *                GEOMETRY OPTIMIZATION CYCLE   2            *
         *************************************************************
---------------------------------
CARTESIAN COORDINATES (ANGSTROEM)
---------------------------------
  C     -0.001822    0.000000    0.006165
  C      0.005998   -0.000000    1.409324
  C      1.216734    0.000000    2.107036
  C      2.421688    0.000000    1.402046
  C      2.413288   -0.000000    0.004432
  C      1.203106    0.000000   -0.693247
  H     -0.933705   -0.000000    1.955545
  H      1.222184    0.000000    3.194711
  H      3.366660    0.000000    1.939824
  H      3.351927   -0.000000   -0.543656
  H      1.202483    0.000000   -1.780868
  H     -1.002932    0.000000   -0.419811

----------------------------
CARTESIAN COORDINATES (A.U.)
----------------------------
  NO LB      ZA    FRAG     MASS         X           Y           Z
   0 C     6.0000    0    12.011   -0.003443    0.000000    0.011649
   1 C     6.0000    0    12.011    0.011335   -0.000000    2.663236
   2 C     6.0000    0    12.011    2.299295    0.000000    3.981720
   3 C     6.0000    0    12.011    4.576327    0.000000    2.649483
   4 C     6.0000    0    12.011    4.560454   -0.000000    0.008375
   5 C     6.0000    0    12.011    2.273540    0.000000   -1.310047
   6 H     1.0000    0     1.008   -1.764447   -0.000000    3.695445
   7 H     1.0000    0     1.008    2.309593    0.000000    6.037129
   8 H     1.0000    0     1.008    6.362066    0.000000    3.665735
   9 H     1.0000    0     1.008    6.334224   -0.000000   -1.027361
  10 H     1.0000    0     1.008    2.272364    0.000000   -3.365353
  11 H     1.0000    0     1.008   -1.895267    0.000000   -0.793328

--------------------------------
INTERNAL COORDINATES (ANGSTROEM)
--------------------------------
 C      0   0   0     0.000000000000     0.00000000     0.00000000
 C      1   0   0     1.403181103301     0.00000000     0.00000000
 C      2   1   0     1.397384289064   120.27291090     0.00000000
 C      3   2   1     1.396038488045   119.71553944     0.00000000
 C      4   3   2     1.397639700421   119.98653234     0.00000000
 C      1   2   3     1.393207268686   119.81410103     0.00000000
 H      2   1   3     1.086922517033   119.84882008   180.00000000
 H      3   2   1     1.087689027235   120.24066505   180.00000000
 H      4   3   2     1.087279697631   120.02521391   180.00000085
 H      5   4   3     1.086941820771   119.93708266   180.00000000
 H      6   1   2     1.087621438061   120.10064214   180.00000000
 H      1   2   3     1.087969265881   113.36922124   180.00000000

---------------------------
INTERNAL COORDINATES (A.U.)
---------------------------
 C      0   0   0     0.000000000000     0.00000000     0.00000000
 C      1   0   0     2.651628001533     0.00000000     0.00000000
 C      2   1   0     2.640673610175   120.27291090     0.00000000
 C      3   2   1     2.638130414818   119.71553944     0.00000000
 C      4   3   2     2.641156267691   119.98653234     0.00000000
 C      1   2   3     2.632780185604   119.81410103     0.00000000
 H      2   1   3     2.053985885985   119.84882008   180.00000000
 H      3   2   1     2.055434380346   120.24066505   180.00000000
 H      4   3   2     2.054660859495   120.02521391   180.00000085
 H      5   4   3     2.054022364763   119.93708266   180.00000000
 H      6   1   2     2.055306655317   120.10064214   180.00000000
 H      1   2   3     2.055963954638   113.36922124   180.00000000

------------------------------------------------------------------------------
                   ___                                                        
                  /   \      - P O W E R E D   B Y -                         
                 /     \                                                     
                 |  |  |   _    _      __       _____    __    __             
                 |  |  |  | |  | |    /  \     |  _  \  |  |  /  |          
                  \  \/   | |  | |   /    \    | | | |  |  | /  /          
                 / \  \   | |__| |  /  /\  \   | |_| |  |  |/  /          
                |  |  |   |  __  | /  /__\  \  |    /   |      \           
                |  |  |   | |  | | |   __   |  |    \   |  |\   \          
                \     /   | |  | | |  |  |  |  | |\  \  |  | \   \       
                 \___/    |_|  |_| |__|  |__|  |_| \__\ |__|  \__/        
                                                                              
                      - O R C A' S   B I G   F R I E N D -                    
                                      &                                       
                       - I N T E G R A L  F E E D E R -                       
                                                                              
 v1 FN, 2020, v2 2021                                                         
------------------------------------------------------------------------------


Reading SHARK input file benzene_mp2.SHARKINP.tmp ... ok
----------------------
SHARK INTEGRAL PACKAGE
----------------------

Number of atoms                             ...     12
Number of basis functions                   ...     96
Number of shells                            ...     48
Maximum angular momentum                    ...      2
Integral batch strategy                     ... SHARK/LIBINT Hybrid
RI-J (if used) integral strategy            ... SPLIT-RIJ (Revised 2003 algorithm where possible)
Printlevel                                  ...      1
Contraction scheme used                     ... SEGMENTED contraction
Coulomb Range Separation                    ... NOT USED
Exchange Range Separation                   ... NOT USED
Finite Nucleus Model                        ... NOT USED
Auxiliary Coulomb fitting basis             ... NOT available
Auxiliary J/K fitting basis                 ... NOT available
Auxiliary Correlation fitting basis         ... NOT available
Auxiliary 'external' fitting basis          ... NOT available
Integral threshold                          ...     2.500000e-11
Primitive cut-off                           ...     2.500000e-12
Primitive pair pre-selection threshold      ...     2.500000e-12

Calculating pre-screening integrals         ... done (  0.1 sec) Dimension = 48
Organizing shell pair data                  ... done (  0.0 sec)
Shell pair information
[...]
     17      -0.000000   0.000000  -0.000000   0.000000  -0.000000  -0.288574
     18      -0.000000   0.000000  -0.000000  -0.000000  -0.000000  -0.249028
     19      -0.247044  -0.513634   0.085122   0.556229   0.417308  -0.000000
     20       0.000000  -0.000000   0.000000  -0.000000   0.000000   0.146009
     21      -0.000000   0.000000   0.000000  -0.000000   0.000000  -0.002107
     22      -0.570467  -0.043160  -0.528175  -0.197319  -0.413302   0.000000
     23      -0.000000   0.000000   0.000000  -0.000000  -0.000000  -0.288309
     24       0.000000  -0.000000   0.000000   0.000000   0.000000   0.251898
     25      -0.321090   0.472253   0.440117  -0.364632   0.406092  -0.000000
     26       0.000000   0.000000  -0.000000   0.000000   0.000000   0.140145
     27       0.000000   0.000000  -0.000000   0.000000  -0.000000  -0.248689
     28       0.247394   0.513675   0.091929   0.569501  -0.401285   0.000000
     29       0.000000  -0.000000   0.000000   0.000000   0.000000   0.147015
     30      -0.000000   0.000000  -0.000000   0.000000   0.000000  -0.001117
     31       0.569929   0.043085  -0.534797  -0.211706   0.401232  -0.000000
     32      -0.000000   0.000000  -0.000000   0.000000  -0.000000  -0.288132
     33      -0.000000  -0.000000   0.000000  -0.000000   0.000000   0.251621
     34       0.320348  -0.473054   0.446341  -0.350971  -0.409913   0.000000
     35       0.000000   0.000000   0.000000  -0.000000   0.000000   0.141037
                 18         19         20         21         22         23    
      0      -0.239243   0.096666  -0.054506  -0.010139   0.020446   0.021648
      1      -0.000000  -0.000000   0.000000  -0.000000   0.000000   0.000000
      2      -0.134215  -0.020082  -0.091044   0.018183  -0.041251  -0.032814
      3      -0.235744  -0.076021  -0.080130  -0.010606  -0.002590   0.030728
      4       0.000000   0.000000   0.000000   0.000000  -0.000000  -0.000000
      5       0.139522  -0.045599   0.081801  -0.018039  -0.011307   0.050826
      6       0.002343  -0.012258   0.082671   0.020792   0.057028  -0.019957
      7      -0.000000   0.000000   0.000000  -0.000000  -0.000000   0.000000
      8       0.274009   0.117334   0.018368  -0.000090   0.000659   0.003675
      9       0.239146   0.097125  -0.053940  -0.010165  -0.020417  -0.021698
     10       0.000000   0.000000  -0.000000   0.000000   0.000000   0.000000
     11       0.135013  -0.019699  -0.090881   0.018253   0.041208   0.032848
     12       0.236788  -0.075700  -0.079766  -0.010675   0.002559  -0.030796
     13       0.000000  -0.000000  -0.000000  -0.000000  -0.000000  -0.000000
     14      -0.139506  -0.045924   0.081524  -0.018152   0.011465  -0.050783
     15      -0.003076  -0.012145   0.082739   0.020872  -0.057050   0.020085
     16      -0.000000  -0.000000  -0.000000   0.000000  -0.000000   0.000000
     17      -0.275112   0.116893   0.017888  -0.000096  -0.000738  -0.003799
     18      -0.259497  -0.297619  -0.005795  -0.207157  -0.051368   0.287582
     19       0.000000   0.000000  -0.000000   0.000000  -0.000000   0.000000
     20       0.153728  -0.413461   0.227364  -0.351006  -0.092232   0.486251
     21       0.001522  -0.085642   0.537329   0.406815   0.541812  -0.191475
     22       0.000000  -0.000000  -0.000000   0.000000   0.000000  -0.000000
     23       0.301712   0.128649   0.015426  -0.004044  -0.004597   0.004628
     24       0.262645   0.278436   0.081441  -0.200097  -0.212450  -0.185033
     25      -0.000000   0.000000  -0.000000  -0.000000  -0.000000  -0.000000
     26       0.149797  -0.327710  -0.347936   0.355377   0.380869   0.324069
     27       0.261059  -0.297702  -0.004934  -0.208206   0.051182  -0.287302
     28      -0.000000  -0.000000   0.000000  -0.000000  -0.000000   0.000000
     29      -0.153013  -0.413882   0.227562  -0.352127   0.091991  -0.484794
     30      -0.003821  -0.086004   0.537597   0.407645  -0.541296   0.190505
     31       0.000000   0.000000   0.000000  -0.000000   0.000000   0.000000
     32      -0.302876   0.128100   0.015253  -0.003733   0.004118  -0.004614
     33      -0.264475   0.278023   0.080871  -0.199938   0.212406   0.185600
     34      -0.000000  -0.000000   0.000000   0.000000  -0.000000  -0.000000
     35      -0.145909  -0.328092  -0.348052   0.354835  -0.380586  -0.324970
                 24         25         26         27         28         29    
      0       0.029592  -0.171984   0.090502   0.059259  -0.209667   0.019263
      1       0.000000  -0.000000  -0.000000  -0.000000   0.000000  -0.000000
      2      -0.052532   0.302859  -0.112584   0.077673   0.160870  -0.255704
      3      -0.030634  -0.176764  -0.109510   0.002765   0.166464   0.136044
      4      -0.000000   0.000000   0.000000   0.000000   0.000000   0.000000
      5      -0.051788  -0.298491  -0.056066  -0.124067  -0.005588   0.299800
      6      -0.060308   0.348957   0.039386  -0.141593  -0.322341  -0.096449
      7      -0.000000  -0.000000   0.000000  -0.000000  -0.000000   0.000000
      8       0.000572  -0.003939   0.089133   0.025684   0.045195  -0.143342
      9      -0.029592  -0.171293   0.090866   0.059219   0.209585  -0.019291
     10       0.000000   0.000000   0.000000   0.000000   0.000000  -0.000000
     11       0.052531   0.303424  -0.112415   0.077579  -0.160759   0.255626
     12       0.030620  -0.177378  -0.109848   0.002790  -0.165710  -0.135217
     13      -0.000000  -0.000000  -0.000000  -0.000000   0.000000   0.000000
     14       0.051851  -0.299335  -0.056462  -0.123960   0.006208  -0.299101
     15       0.060324   0.349887   0.039945  -0.141647   0.321584   0.095478
     16      -0.000000   0.000000  -0.000000   0.000000  -0.000000   0.000000
     17      -0.000630  -0.003719   0.089177   0.025669  -0.045613   0.142983
     18       0.205430   0.104345   0.122593   0.264176   0.096286  -0.237492
     19      -0.000000  -0.000000  -0.000000  -0.000000  -0.000000   0.000000
     20       0.348084   0.178064   0.368335   0.287717  -0.170340  -0.322064
     21       0.403731  -0.216152  -0.139084   0.519320   0.393519   0.113666
     22       0.000000  -0.000000  -0.000000   0.000000   0.000000  -0.000000
     23      -0.004203   0.001848   0.112560   0.024723   0.044442  -0.168560
     24       0.198205   0.104144  -0.229430   0.164731  -0.040391   0.248594
     25      -0.000000   0.000000  -0.000000  -0.000000  -0.000000   0.000000
     26      -0.351726  -0.185701   0.467750  -0.065601   0.316555  -0.184502
     27      -0.205629   0.106399   0.123239   0.264398  -0.096529   0.238090
     28      -0.000000   0.000000   0.000000  -0.000000  -0.000000   0.000000
     29      -0.347555   0.180472   0.368771   0.287293   0.168759   0.320639
     30      -0.403466  -0.219023  -0.139973   0.519373  -0.392972  -0.112434
     31       0.000000   0.000000   0.000000  -0.000000   0.000000  -0.000000
     32       0.003749   0.001468   0.112467   0.025295  -0.045756   0.167868
     33      -0.198297   0.103309  -0.229929   0.165048   0.041092  -0.248375
     34      -0.000000  -0.000000   0.000000   0.000000  -0.000000   0.000000
     35       0.351612  -0.185673   0.467307  -0.065862  -0.317401   0.183516
                 30         31         32         33         34         35    
      0      -0.029745   0.028282  -0.032435   0.027821  -0.035517   0.032699
      1       0.000000  -0.000000  -0.000000   0.000000  -0.000000   0.000000
      2      -0.016744   0.013607  -0.020249   0.019020  -0.017237   0.018396
      3       0.029859  -0.042333  -0.006037   0.043404   0.009489   0.031873
      4      -0.000000  -0.000000   0.000000  -0.000000  -0.000000  -0.000000
      5      -0.017616   0.024452   0.006610  -0.026372  -0.001261  -0.018816
      6       0.000326   0.002336  -0.001388  -0.003747   0.000805  -0.000365
      7       0.000000   0.000000   0.000000   0.000000   0.000000  -0.000000
      8       0.034053  -0.016555  -0.046412  -0.018236  -0.048610  -0.037532
      9      -0.029590  -0.028805   0.032150   0.027269  -0.035819  -0.032839
     10      -0.000000  -0.000000  -0.000000  -0.000000  -0.000000   0.000000
     11      -0.016659  -0.013909   0.020073   0.018719  -0.017403  -0.018519
     12       0.029298   0.042340   0.006168   0.043311   0.009338  -0.032420
     13       0.000000  -0.000000   0.000000   0.000000   0.000000  -0.000000
     14      -0.017319  -0.024517  -0.006669  -0.026378  -0.001188   0.019174
     15       0.000313  -0.002316   0.001344  -0.003725   0.000848   0.000364
     16      -0.000000   0.000000   0.000000  -0.000000  -0.000000  -0.000000
     17       0.033681   0.017125   0.046390  -0.017631  -0.048607   0.037935
     18      -0.356048   0.489232   0.084405  -0.486048  -0.086597  -0.344679
     19       0.000000   0.000000  -0.000000  -0.000000  -0.000000   0.000000
     20       0.210164  -0.288330  -0.052543   0.287809   0.045971   0.203465
     21      -0.004155  -0.000265   0.006355   0.006319   0.004003   0.004145
     22      -0.000000  -0.000000  -0.000000   0.000000   0.000000   0.000000
     23      -0.406521   0.192257   0.539466   0.203375   0.540855   0.406257
     24       0.353106   0.324245  -0.382553  -0.317847   0.386768   0.355510
     25       0.000000   0.000000  -0.000000  -0.000000  -0.000000   0.000000
     26       0.198942   0.180634  -0.217303  -0.183072   0.214609   0.200331
     27      -0.349495  -0.489606  -0.085808  -0.485347  -0.085044   0.350814
     28      -0.000000   0.000000  -0.000000   0.000000   0.000000  -0.000000
     29       0.206704   0.289128   0.053449   0.287969   0.045137  -0.207482
     30      -0.003784   0.000336  -0.005897   0.006100   0.003542  -0.003886
     31       0.000000  -0.000000  -0.000000  -0.000000  -0.000000   0.000000
     32      -0.402129  -0.198879  -0.539322   0.196738   0.540976  -0.410783
     33       0.354873  -0.318038   0.385863  -0.323862   0.383309  -0.353720
     34      -0.000000   0.000000  -0.000000   0.000000   0.000000   0.000000
     35       0.200050  -0.177235   0.219315  -0.186572   0.212806  -0.199388


-----------
IR SPECTRUM
-----------

 Mode   freq       eps      Int      T**2         TX        TY        TZ
       cm**-1   L/(mol*cm) km/mol    a.u.
----------------------------------------------------------------------------
  6:    398.25   0.000000    0.00  0.000000  (-0.000000 -0.000023 -0.000000)
  7:    398.49   0.000000    0.00  0.000000  (-0.000000  0.000006  0.000000)
  8:    512.51   0.000000    0.00  0.000000  (-0.000000  0.000011 -0.000000)
  9:    620.39   0.000000    0.00  0.000000  (-0.000005 -0.000000 -0.000014)
 10:    620.47   0.000000    0.00  0.000000  ( 0.000015  0.000000 -0.000000)
 11:    686.88   0.019545   98.77  0.008880  ( 0.000000 -0.094232 -0.000000)
 12:    846.44   0.000000    0.00  0.000000  ( 0.000000 -0.000031 -0.000000)
 13:    846.48   0.000000    0.00  0.000000  (-0.000000 -0.000028  0.000000)
 14:    898.88   0.000000    0.00  0.000000  ( 0.000000  0.000015 -0.000000)
 15:    899.07   0.000000    0.00  0.000000  ( 0.000000  0.000031 -0.000000)
 16:    902.19   0.000000    0.00  0.000000  ( 0.000000  0.000003 -0.000000)
 17:   1023.00   0.000000    0.00  0.000000  ( 0.000025  0.000000 -0.000019)
 18:   1029.31   0.000000    0.00  0.000000  (-0.000017 -0.000000  0.000024)
 19:   1084.57   0.000772    3.90  0.000222  (-0.002514 -0.000000 -0.014692)
 20:   1084.79   0.000768    3.88  0.000221  ( 0.014653  0.000000 -0.002510)
 21:   1210.50   0.000000    0.00  0.000000  (-0.000016 -0.000000  0.000011)
 22:   1230.49   0.000000    0.00  0.000000  ( 0.000013 -0.000000 -0.000027)
 23:   1230.86   0.000000    0.00  0.000000  (-0.000017 -0.000000  0.000029)
 24:   1392.93   0.000000    0.00  0.000000  (-0.000006 -0.000000 -0.000003)
 25:   1467.64   0.000000    0.00  0.000000  (-0.000086  0.000000 -0.000045)
 26:   1541.60   0.001966    9.94  0.000398  (-0.005002 -0.000000  0.019312)
 27:   1541.68   0.001961    9.91  0.000397  ( 0.019276 -0.000000  0.005028)
 28:   1674.26   0.000000    0.00  0.000000  ( 0.000003  0.000000 -0.000024)
 29:   1674.79   0.000000    0.00  0.000000  ( 0.000016  0.000000 -0.000016)
 30:   3216.80   0.000000    0.00  0.000000  ( 0.000098 -0.000000 -0.000123)
 31:   3226.43   0.000000    0.00  0.000000  (-0.000080 -0.000000  0.000041)
 32:   3226.62   0.000000    0.00  0.000000  (-0.000027 -0.000000 -0.000036)
 33:   3241.11   0.006607   33.39  0.000636  ( 0.023585 -0.000000 -0.008940)
 34:   3241.27   0.006600   33.35  0.000635  (-0.008927  0.000000 -0.023573)
 35:   3250.28   0.000000    0.00  0.000000  (-0.000116 -0.000000  0.000104)

* The epsilon (eps) is given for a Dirac delta lineshape.
** The dipole moment derivative (T) already includes vibrational overlap.

The first frequency considered to be a vibration is 6
The total number of vibrations considered is 30


--------------------------
THERMOCHEMISTRY AT 298.15K
--------------------------

Temperature         ... 298.15 K
Pressure            ... 1.00 atm
Total Mass          ... 78.11 AMU

Throughout the following assumptions are being made:
  (1) The electronic state is orbitally nondegenerate
  (2) There are no thermally accessible electronically excited states
  (3) Hindered rotations indicated by low frequency modes are not
      treated as such but are treated as vibrations and this may
      cause some error
  (4) All equations used are the standard statistical mechanics
      equations for an ideal gas
  (5) All vibrations are strictly harmonic

freq.     398.25  E(vib)   ...       0.20 
freq.     398.49  E(vib)   ...       0.20 
freq.     512.51  E(vib)   ...       0.13 
freq.     620.39  E(vib)   ...       0.09 
freq.     620.47  E(vib)   ...       0.09 
freq.     686.88  E(vib)   ...       0.07 
freq.     846.44  E(vib)   ...       0.04 
freq.     846.48  E(vib)   ...       0.04 
freq.     898.88  E(vib)   ...       0.03 
freq.     899.07  E(vib)   ...       0.03 
freq.     902.19  E(vib)   ...       0.03 
freq.    1023.00  E(vib)   ...       0.02 
freq.    1029.31  E(vib)   ...       0.02 
freq.    1084.57  E(vib)   ...       0.02 
freq.    1084.79  E(vib)   ...       0.02 
freq.    1210.50  E(vib)   ...       0.01 
freq.    1230.49  E(vib)   ...       0.01 
freq.    1230.86  E(vib)   ...       0.01 
freq.    1392.93  E(vib)   ...       0.00 
freq.    1467.64  E(vib)   ...       0.00 
freq.    1541.60  E(vib)   ...       0.00 
freq.    1541.68  E(vib)   ...       0.00 
freq.    1674.26  E(vib)   ...       0.00 
freq.    1674.79  E(vib)   ...       0.00 
freq.    3216.80  E(vib)   ...       0.00 
freq.    3226.43  E(vib)   ...       0.00 
freq.    3226.62  E(vib)   ...       0.00 
freq.    3241.11  E(vib)   ...       0.00 
freq.    3241.27  E(vib)   ...       0.00 
freq.    3250.28  E(vib)   ...       0.00 

------------
INNER ENERGY
------------

The inner energy is: U= E(el) + E(ZPE) + E(vib) + E(rot) + E(trans)
    E(el)   - is the total energy from the electronic structure calculation
              = E(kin-el) + E(nuc-el) + E(el-el) + E(nuc-nuc)
    E(ZPE)  - the the zero temperature vibrational energy from the frequency calculation
    E(vib)  - the the finite temperature correction to E(ZPE) due to population
              of excited vibrational states
    E(rot)  - is the rotational thermal energy
    E(trans)- is the translational thermal energy

Summary of contributions to the inner energy U:
Electronic energy                ...   -231.46455300 Eh
Zero point energy                ...      0.10073829 Eh      63.21 kcal/mol
Thermal vibrational correction   ...      0.00173870 Eh       1.09 kcal/mol
Thermal rotational correction    ...      0.00141627 Eh       0.89 kcal/mol
Thermal translational correction ...      0.00141627 Eh       0.89 kcal/mol
-----------------------------------------------------------------------
Total thermal energy                   -231.35924347 Eh


Summary of corrections to the electronic energy:
(perhaps to be used in another calculation)
Total thermal correction                  0.00457125 Eh       2.87 kcal/mol
Non-thermal (ZPE) correction              0.10073829 Eh      63.21 kcal/mol
-----------------------------------------------------------------------
Total correction                          0.10530953 Eh      66.08 kcal/mol


--------
ENTHALPY
--------

The enthalpy is H = U + kB*T
                kB is Boltzmann's constant
Total free energy                 ...   -231.35924347 Eh 
Thermal Enthalpy correction       ...      0.00094421 Eh       0.59 kcal/mol
-----------------------------------------------------------------------
Total Enthalpy                    ...   -231.35829926 Eh


Note: Rotational entropy computed according to Herzberg 
Infrared and Raman Spectra, Chapter V,1, Van Nostrand Reinhold, 1945 
Point Group:  Cs, Symmetry Number:   1  
Rotational constants in cm-1:     0.189542     0.189525     0.094767 

Vibrational entropy computed according to the QRRHO of S. Grimme
Chem.Eur.J. 2012 18 9955


-------
ENTROPY
-------

The entropy contributions are T*S = T*(S(el)+S(vib)+S(rot)+S(trans))
     S(el)   - electronic entropy
     S(vib)  - vibrational entropy
     S(rot)  - rotational entropy
     S(trans)- translational entropy
The entropies will be listed as multiplied by the temperature to get
units of energy

Electronic entropy                ...      0.00000000 Eh      0.00 kcal/mol
Vibrational entropy               ...      0.00235957 Eh      1.48 kcal/mol
Rotational entropy                ...      0.01219357 Eh      7.65 kcal/mol
Translational entropy             ...      0.01852142 Eh     11.62 kcal/mol
-----------------------------------------------------------------------
Final entropy term                ...      0.03307456 Eh     20.75 kcal/mol

In case the symmetry of your molecule has not been determined correctly
or in case you have a reason to use a different symmetry number we print 
out the resulting rotational entropy values for sn=1,12 :
 --------------------------------------------------------
|  sn= 1 | S(rot)=       0.01219357 Eh      7.65 kcal/mol|
|  sn= 2 | S(rot)=       0.01153911 Eh      7.24 kcal/mol|
|  sn= 3 | S(rot)=       0.01115628 Eh      7.00 kcal/mol|
|  sn= 4 | S(rot)=       0.01088466 Eh      6.83 kcal/mol|
|  sn= 5 | S(rot)=       0.01067397 Eh      6.70 kcal/mol|
|  sn= 6 | S(rot)=       0.01050182 Eh      6.59 kcal/mol|
|  sn= 7 | S(rot)=       0.01035628 Eh      6.50 kcal/mol|
|  sn= 8 | S(rot)=       0.01023020 Eh      6.42 kcal/mol|
|  sn= 9 | S(rot)=       0.01011899 Eh      6.35 kcal/mol|
|  sn=10 | S(rot)=       0.01001951 Eh      6.29 kcal/mol|
|  sn=11 | S(rot)=       0.00992952 Eh      6.23 kcal/mol|
|  sn=12 | S(rot)=       0.00984737 Eh      6.18 kcal/mol|
 --------------------------------------------------------


-------------------
GIBBS FREE ENERGY
-------------------

The Gibbs free energy is G = H - T*S

Total enthalpy                    ...   -231.35829926 Eh 
Total entropy correction          ...     -0.03307456 Eh    -20.75 kcal/mol
-----------------------------------------------------------------------
Final Gibbs free energy         ...   -231.39137382 Eh

For completeness - the Gibbs free energy minus the electronic energy
G-E(el)                           ...      0.07317918 Eh     45.92 kcal/mol


Timings for individual modules:

Sum of individual times         ...     1467.165 sec (=  24.453 min)
GTO integral calculation        ...        1.153 sec (=   0.019 min)   0.1 %
SCF iterations                  ...       58.458 sec (=   0.974 min)   4.0 %
MP2 module                      ...      158.536 sec (=   2.642 min)  10.8 %
Geometry relaxation             ...        0.177 sec (=   0.003 min)   0.0 %
Analytical frequency calculation...     1248.842 sec (=  20.814 min)  85.1 %
                             ****ORCA TERMINATED NORMALLY****
TOTAL RUN TIME: 0 days 0 hours 24 minutes 27 seconds 663 msec
